+ 0.20032 2 3 tcp 40 ------- 1 0.0 3.0 0 0
- 0.20032 2 3 tcp 40 ------- 1 0.0 3.0 0 0
r 0.30532 2 3 tcp 40 ------- 1 0.0 3.0 0 0
+ 0.61176 2 3 tcp 140 ------- 1 0.0 3.0 1 2
- 0.61176 2 3 tcp 140 ------- 1 0.0 3.0 1 2
+ 0.61288 2 3 tcp 140 ------- 1 0.0 3.0 2 3
+ 0.616686 2 3 tcp 40 ------- 2 1.0 3.1 0 4
- 0.62926 2 3 tcp 140 ------- 1 0.0 3.0 2 3
- 0.64676 2 3 tcp 40 ------- 2 1.0 3.1 0 4
r 0.72926 2 3 tcp 140 ------- 1 0.0 3.0 1 2
r 0.74676 2 3 tcp 140 ------- 1 0.0 3.0 2 3
r 0.75176 2 3 tcp 40 ------- 2 1.0 3.1 0 4
+ 1.0357 2 3 tcp 140 ------- 1 0.0 3.0 3 8
- 1.0357 2 3 tcp 140 ------- 1 0.0 3.0 3 8
+ 1.03682 2 3 tcp 140 ------- 1 0.0 3.0 4 9
+ 1.0532 2 3 tcp 140 ------- 1 0.0 3.0 5 10
- 1.0532 2 3 tcp 140 ------- 1 0.0 3.0 4 9
+ 1.05432 2 3 tcp 140 ------- 1 0.0 3.0 6 11
+ 1.0582 2 3 tcp 140 ------- 2 1.0 3.1 1 12
+ 1.05932 2 3 tcp 140 ------- 2 1.0 3.1 2 13
- 1.0707 2 3 tcp 140 ------- 1 0.0 3.0 5 10
- 1.0882 2 3 tcp 140 ------- 1 0.0 3.0 6 11
- 1.1057 2 3 tcp 140 ------- 2 1.0 3.1 1 12
- 1.1232 2 3 tcp 140 ------- 2 1.0 3.1 2 13
r 1.1532 2 3 tcp 140 ------- 1 0.0 3.0 3 8
r 1.1707 2 3 tcp 140 ------- 1 0.0 3.0 4 9
r 1.1882 2 3 tcp 140 ------- 1 0.0 3.0 5 10
r 1.2057 2 3 tcp 140 ------- 1 0.0 3.0 6 11
r 1.2232 2 3 tcp 140 ------- 2 1.0 3.1 1 12
r 1.2407 2 3 tcp 140 ------- 2 1.0 3.1 2 13
+ 1.45964 2 3 tcp 140 ------- 1 0.0 3.0 7 20
- 1.45964 2 3 tcp 140 ------- 1 0.0 3.0 7 20
+ 1.46076 2 3 tcp 140 ------- 1 0.0 3.0 8 21
+ 1.47714 2 3 tcp 140 ------- 1 0.0 3.0 9 22
- 1.47714 2 3 tcp 140 ------- 1 0.0 3.0 8 21
+ 1.47826 2 3 tcp 140 ------- 1 0.0 3.0 10 23
+ 1.49464 2 3 tcp 140 ------- 1 0.0 3.0 11 24
- 1.49464 2 3 tcp 140 ------- 1 0.0 3.0 9 22
+ 1.49576 2 3 tcp 140 ------- 1 0.0 3.0 12 25
+ 1.51214 2 3 tcp 140 ------- 1 0.0 3.0 13 26
- 1.51214 2 3 tcp 140 ------- 1 0.0 3.0 10 23
+ 1.51326 2 3 tcp 140 ------- 1 0.0 3.0 14 27
+ 1.52964 2 3 tcp 140 ------- 2 1.0 3.1 3 28
d 1.52964 2 3 tcp 140 ------- 2 1.0 3.1 3 28
- 1.52964 2 3 tcp 140 ------- 1 0.0 3.0 11 24
+ 1.53076 2 3 tcp 140 ------- 2 1.0 3.1 4 29
+ 1.54714 2 3 tcp 140 ------- 2 1.0 3.1 5 30
d 1.54714 2 3 tcp 140 ------- 2 1.0 3.1 5 30
- 1.54714 2 3 tcp 140 ------- 1 0.0 3.0 12 25
+ 1.54826 2 3 tcp 140 ------- 2 1.0 3.1 6 31
- 1.56464 2 3 tcp 140 ------- 1 0.0 3.0 13 26
r 1.57714 2 3 tcp 140 ------- 1 0.0 3.0 7 20
- 1.58214 2 3 tcp 140 ------- 1 0.0 3.0 14 27
r 1.59464 2 3 tcp 140 ------- 1 0.0 3.0 8 21
- 1.59964 2 3 tcp 140 ------- 2 1.0 3.1 4 29
r 1.61214 2 3 tcp 140 ------- 1 0.0 3.0 9 22
- 1.61714 2 3 tcp 140 ------- 2 1.0 3.1 6 31
r 1.62964 2 3 tcp 140 ------- 1 0.0 3.0 10 23
r 1.64714 2 3 tcp 140 ------- 1 0.0 3.0 11 24
r 1.66464 2 3 tcp 140 ------- 1 0.0 3.0 12 25
r 1.68214 2 3 tcp 140 ------- 1 0.0 3.0 13 26
r 1.69964 2 3 tcp 140 ------- 1 0.0 3.0 14 27
r 1.71714 2 3 tcp 140 ------- 2 1.0 3.1 4 29
r 1.73464 2 3 tcp 140 ------- 2 1.0 3.1 6 31
+ 1.88358 2 3 tcp 140 ------- 1 0.0 3.0 15 42
- 1.88358 2 3 tcp 140 ------- 1 0.0 3.0 15 42
+ 1.8847 2 3 tcp 140 ------- 1 0.0 3.0 16 43
+ 1.90108 2 3 tcp 140 ------- 1 0.0 3.0 17 44
- 1.90108 2 3 tcp 140 ------- 1 0.0 3.0 16 43
+ 1.9022 2 3 tcp 140 ------- 1 0.0 3.0 18 45
+ 1.91858 2 3 tcp 140 ------- 1 0.0 3.0 19 46
- 1.91858 2 3 tcp 140 ------- 1 0.0 3.0 17 44
+ 1.93608 2 3 tcp 140 ------- 1 0.0 3.0 20 47
- 1.93608 2 3 tcp 140 ------- 1 0.0 3.0 18 45
+ 1.95358 2 3 tcp 140 ------- 1 0.0 3.0 21 48
- 1.95358 2 3 tcp 140 ------- 1 0.0 3.0 19 46
+ 1.97108 2 3 tcp 140 ------- 1 0.0 3.0 22 49
- 1.97108 2 3 tcp 140 ------- 1 0.0 3.0 20 47
+ 1.98858 2 3 tcp 140 ------- 1 0.0 3.0 23 50
- 1.98858 2 3 tcp 140 ------- 1 0.0 3.0 21 48
r 2.00108 2 3 tcp 140 ------- 1 0.0 3.0 15 42
+ 2.00608 2 3 tcp 140 ------- 1 0.0 3.0 24 51
- 2.00608 2 3 tcp 140 ------- 1 0.0 3.0 22 49
r 2.01858 2 3 tcp 140 ------- 1 0.0 3.0 16 43
+ 2.02358 2 3 tcp 140 ------- 2 1.0 3.1 7 52
- 2.02358 2 3 tcp 140 ------- 1 0.0 3.0 23 50
r 2.03608 2 3 tcp 140 ------- 1 0.0 3.0 17 44
+ 2.04108 2 3 tcp 140 ------- 2 1.0 3.1 8 53
- 2.04108 2 3 tcp 140 ------- 1 0.0 3.0 24 51
r 2.05358 2 3 tcp 140 ------- 1 0.0 3.0 18 45
- 2.05858 2 3 tcp 140 ------- 2 1.0 3.1 7 52
r 2.07108 2 3 tcp 140 ------- 1 0.0 3.0 19 46
- 2.07608 2 3 tcp 140 ------- 2 1.0 3.1 8 53
r 2.08858 2 3 tcp 140 ------- 1 0.0 3.0 20 47
r 2.10608 2 3 tcp 140 ------- 1 0.0 3.0 21 48
r 2.12358 2 3 tcp 140 ------- 1 0.0 3.0 22 49
r 2.14108 2 3 tcp 140 ------- 1 0.0 3.0 23 50
r 2.15858 2 3 tcp 140 ------- 1 0.0 3.0 24 51
r 2.17608 2 3 tcp 140 ------- 2 1.0 3.1 7 52
r 2.19358 2 3 tcp 140 ------- 2 1.0 3.1 8 53
+ 2.30752 2 3 tcp 140 ------- 1 0.0 3.0 25 66
- 2.30752 2 3 tcp 140 ------- 1 0.0 3.0 25 66
+ 2.32502 2 3 tcp 140 ------- 1 0.0 3.0 26 67
- 2.32502 2 3 tcp 140 ------- 1 0.0 3.0 26 67
+ 2.34252 2 3 tcp 140 ------- 1 0.0 3.0 27 68
- 2.34252 2 3 tcp 140 ------- 1 0.0 3.0 27 68
+ 2.36002 2 3 tcp 140 ------- 1 0.0 3.0 28 69
- 2.36002 2 3 tcp 140 ------- 1 0.0 3.0 28 69
+ 2.37752 2 3 tcp 140 ------- 1 0.0 3.0 29 70
- 2.37752 2 3 tcp 140 ------- 1 0.0 3.0 29 70
+ 2.39502 2 3 tcp 140 ------- 1 0.0 3.0 30 71
- 2.39502 2 3 tcp 140 ------- 1 0.0 3.0 30 71
+ 2.41252 2 3 tcp 140 ------- 1 0.0 3.0 31 72
- 2.41252 2 3 tcp 140 ------- 1 0.0 3.0 31 72
r 2.42502 2 3 tcp 140 ------- 1 0.0 3.0 25 66
+ 2.43002 2 3 tcp 140 ------- 1 0.0 3.0 32 73
- 2.43002 2 3 tcp 140 ------- 1 0.0 3.0 32 73
r 2.44252 2 3 tcp 140 ------- 1 0.0 3.0 26 67
+ 2.44752 2 3 tcp 140 ------- 1 0.0 3.0 33 74
- 2.44752 2 3 tcp 140 ------- 1 0.0 3.0 33 74
r 2.46002 2 3 tcp 140 ------- 1 0.0 3.0 27 68
+ 2.46502 2 3 tcp 140 ------- 1 0.0 3.0 34 75
- 2.46502 2 3 tcp 140 ------- 1 0.0 3.0 34 75
r 2.47752 2 3 tcp 140 ------- 1 0.0 3.0 28 69
+ 2.48252 2 3 tcp 140 ---A--- 2 1.0 3.1 3 76
- 2.48252 2 3 tcp 140 ---A--- 2 1.0 3.1 3 76
r 2.49502 2 3 tcp 140 ------- 1 0.0 3.0 29 70
r 2.51252 2 3 tcp 140 ------- 1 0.0 3.0 30 71
r 2.53002 2 3 tcp 140 ------- 1 0.0 3.0 31 72
r 2.54752 2 3 tcp 140 ------- 1 0.0 3.0 32 73
r 2.56502 2 3 tcp 140 ------- 1 0.0 3.0 33 74
r 2.58252 2 3 tcp 140 ------- 1 0.0 3.0 34 75
r 2.60002 2 3 tcp 140 ---A--- 2 1.0 3.1 3 76
+ 2.73146 2 3 tcp 140 ------- 1 0.0 3.0 35 88
- 2.73146 2 3 tcp 140 ------- 1 0.0 3.0 35 88
+ 2.74896 2 3 tcp 140 ------- 1 0.0 3.0 36 89
- 2.74896 2 3 tcp 140 ------- 1 0.0 3.0 36 89
+ 2.76646 2 3 tcp 140 ------- 1 0.0 3.0 37 90
- 2.76646 2 3 tcp 140 ------- 1 0.0 3.0 37 90
+ 2.78396 2 3 tcp 140 ------- 1 0.0 3.0 38 91
- 2.78396 2 3 tcp 140 ------- 1 0.0 3.0 38 91
+ 2.80146 2 3 tcp 140 ------- 1 0.0 3.0 39 92
- 2.80146 2 3 tcp 140 ------- 1 0.0 3.0 39 92
+ 2.81896 2 3 tcp 140 ------- 1 0.0 3.0 40 93
- 2.81896 2 3 tcp 140 ------- 1 0.0 3.0 40 93
+ 2.83646 2 3 tcp 140 ------- 1 0.0 3.0 41 94
- 2.83646 2 3 tcp 140 ------- 1 0.0 3.0 41 94
r 2.84896 2 3 tcp 140 ------- 1 0.0 3.0 35 88
+ 2.85396 2 3 tcp 140 ------- 1 0.0 3.0 42 95
- 2.85396 2 3 tcp 140 ------- 1 0.0 3.0 42 95
r 2.86646 2 3 tcp 140 ------- 1 0.0 3.0 36 89
+ 2.87146 2 3 tcp 140 ------- 1 0.0 3.0 43 96
- 2.87146 2 3 tcp 140 ------- 1 0.0 3.0 43 96
r 2.88396 2 3 tcp 140 ------- 1 0.0 3.0 37 90
+ 2.88896 2 3 tcp 140 ------- 1 0.0 3.0 44 97
- 2.88896 2 3 tcp 140 ------- 1 0.0 3.0 44 97
r 2.90146 2 3 tcp 140 ------- 1 0.0 3.0 38 91
+ 2.90646 2 3 tcp 140 ------- 2 1.0 3.1 5 98
- 2.90646 2 3 tcp 140 ------- 2 1.0 3.1 5 98
+ 2.90758 2 3 tcp 140 ------- 2 1.0 3.1 6 99
r 2.91896 2 3 tcp 140 ------- 1 0.0 3.0 39 92
- 2.92396 2 3 tcp 140 ------- 2 1.0 3.1 6 99
r 2.93646 2 3 tcp 140 ------- 1 0.0 3.0 40 93
r 2.95396 2 3 tcp 140 ------- 1 0.0 3.0 41 94
r 2.97146 2 3 tcp 140 ------- 1 0.0 3.0 42 95
r 2.98896 2 3 tcp 140 ------- 1 0.0 3.0 43 96
r 3.00646 2 3 tcp 140 ------- 1 0.0 3.0 44 97
r 3.02396 2 3 tcp 140 ------- 2 1.0 3.1 5 98
r 3.04146 2 3 tcp 140 ------- 2 1.0 3.1 6 99
+ 3.1554 2 3 tcp 140 ------- 1 0.0 3.0 45 112
- 3.1554 2 3 tcp 140 ------- 1 0.0 3.0 45 112
+ 3.1729 2 3 tcp 140 ------- 1 0.0 3.0 46 113
- 3.1729 2 3 tcp 140 ------- 1 0.0 3.0 46 113
+ 3.1904 2 3 tcp 140 ------- 1 0.0 3.0 47 114
- 3.1904 2 3 tcp 140 ------- 1 0.0 3.0 47 114
+ 3.2079 2 3 tcp 140 ------- 1 0.0 3.0 48 115
- 3.2079 2 3 tcp 140 ------- 1 0.0 3.0 48 115
+ 3.2254 2 3 tcp 140 ------- 1 0.0 3.0 49 116
- 3.2254 2 3 tcp 140 ------- 1 0.0 3.0 49 116
+ 3.2429 2 3 tcp 140 ------- 1 0.0 3.0 50 117
- 3.2429 2 3 tcp 140 ------- 1 0.0 3.0 50 117
+ 3.2604 2 3 tcp 140 ------- 1 0.0 3.0 51 118
- 3.2604 2 3 tcp 140 ------- 1 0.0 3.0 51 118
r 3.2729 2 3 tcp 140 ------- 1 0.0 3.0 45 112
+ 3.2779 2 3 tcp 140 ------- 1 0.0 3.0 52 119
- 3.2779 2 3 tcp 140 ------- 1 0.0 3.0 52 119
r 3.2904 2 3 tcp 140 ------- 1 0.0 3.0 46 113
+ 3.2954 2 3 tcp 140 ------- 1 0.0 3.0 53 120
- 3.2954 2 3 tcp 140 ------- 1 0.0 3.0 53 120
r 3.3079 2 3 tcp 140 ------- 1 0.0 3.0 47 114
+ 3.3129 2 3 tcp 140 ------- 1 0.0 3.0 54 121
- 3.3129 2 3 tcp 140 ------- 1 0.0 3.0 54 121
r 3.3254 2 3 tcp 140 ------- 1 0.0 3.0 48 115
+ 3.3304 2 3 tcp 140 ------- 2 1.0 3.1 9 122
- 3.3304 2 3 tcp 140 ------- 2 1.0 3.1 9 122
+ 3.33152 2 3 tcp 140 ------- 2 1.0 3.1 10 123
r 3.3429 2 3 tcp 140 ------- 1 0.0 3.0 49 116
+ 3.3479 2 3 tcp 140 ------- 2 1.0 3.1 11 124
- 3.3479 2 3 tcp 140 ------- 2 1.0 3.1 10 123
r 3.3604 2 3 tcp 140 ------- 1 0.0 3.0 50 117
- 3.3654 2 3 tcp 140 ------- 2 1.0 3.1 11 124
r 3.3779 2 3 tcp 140 ------- 1 0.0 3.0 51 118
r 3.3954 2 3 tcp 140 ------- 1 0.0 3.0 52 119
r 3.4129 2 3 tcp 140 ------- 1 0.0 3.0 53 120
r 3.4304 2 3 tcp 140 ------- 1 0.0 3.0 54 121
r 3.4479 2 3 tcp 140 ------- 2 1.0 3.1 9 122
r 3.4654 2 3 tcp 140 ------- 2 1.0 3.1 10 123
r 3.4829 2 3 tcp 140 ------- 2 1.0 3.1 11 124
+ 3.57934 2 3 tcp 140 ------- 1 0.0 3.0 55 137
- 3.57934 2 3 tcp 140 ------- 1 0.0 3.0 55 137
+ 3.59684 2 3 tcp 140 ------- 1 0.0 3.0 56 139
- 3.59684 2 3 tcp 140 ------- 1 0.0 3.0 56 139
+ 3.61434 2 3 tcp 140 ------- 1 0.0 3.0 57 140
- 3.61434 2 3 tcp 140 ------- 1 0.0 3.0 57 140
+ 3.63184 2 3 tcp 140 ------- 1 0.0 3.0 58 141
- 3.63184 2 3 tcp 140 ------- 1 0.0 3.0 58 141
+ 3.64934 2 3 tcp 140 ------- 1 0.0 3.0 59 142
- 3.64934 2 3 tcp 140 ------- 1 0.0 3.0 59 142
+ 3.66684 2 3 tcp 140 ------- 1 0.0 3.0 60 143
- 3.66684 2 3 tcp 140 ------- 1 0.0 3.0 60 143
+ 3.68434 2 3 tcp 140 ------- 1 0.0 3.0 61 144
- 3.68434 2 3 tcp 140 ------- 1 0.0 3.0 61 144
r 3.69684 2 3 tcp 140 ------- 1 0.0 3.0 55 137
+ 3.70184 2 3 tcp 140 ------- 1 0.0 3.0 62 145
- 3.70184 2 3 tcp 140 ------- 1 0.0 3.0 62 145
r 3.71434 2 3 tcp 140 ------- 1 0.0 3.0 56 139
+ 3.71934 2 3 tcp 140 ------- 1 0.0 3.0 63 146
- 3.71934 2 3 tcp 140 ------- 1 0.0 3.0 63 146
r 3.73184 2 3 tcp 140 ------- 1 0.0 3.0 57 140
+ 3.73684 2 3 tcp 140 ------- 1 0.0 3.0 64 147
- 3.73684 2 3 tcp 140 ------- 1 0.0 3.0 64 147
r 3.74934 2 3 tcp 140 ------- 1 0.0 3.0 58 141
r 3.76684 2 3 tcp 140 ------- 1 0.0 3.0 59 142
+ 3.77184 2 3 tcp 140 ------- 2 1.0 3.1 12 148
- 3.77184 2 3 tcp 140 ------- 2 1.0 3.1 12 148
+ 3.77296 2 3 tcp 140 ------- 2 1.0 3.1 13 149
r 3.78434 2 3 tcp 140 ------- 1 0.0 3.0 60 143
+ 3.78934 2 3 tcp 140 ------- 2 1.0 3.1 14 150
- 3.78934 2 3 tcp 140 ------- 2 1.0 3.1 13 149
r 3.80184 2 3 tcp 140 ------- 1 0.0 3.0 61 144
- 3.80684 2 3 tcp 140 ------- 2 1.0 3.1 14 150
r 3.81934 2 3 tcp 140 ------- 1 0.0 3.0 62 145
r 3.83684 2 3 tcp 140 ------- 1 0.0 3.0 63 146
r 3.85434 2 3 tcp 140 ------- 1 0.0 3.0 64 147
r 3.88934 2 3 tcp 140 ------- 2 1.0 3.1 12 148
r 3.90684 2 3 tcp 140 ------- 2 1.0 3.1 13 149
r 3.92434 2 3 tcp 140 ------- 2 1.0 3.1 14 150
+ 4.00328 2 3 tcp 140 ------- 1 0.0 3.0 65 162
- 4.00328 2 3 tcp 140 ------- 1 0.0 3.0 65 162
+ 4.02078 2 3 tcp 140 ------- 1 0.0 3.0 66 164
- 4.02078 2 3 tcp 140 ------- 1 0.0 3.0 66 164
+ 4.03828 2 3 tcp 140 ------- 1 0.0 3.0 67 166
- 4.03828 2 3 tcp 140 ------- 1 0.0 3.0 67 166
+ 4.05578 2 3 tcp 140 ------- 1 0.0 3.0 68 167
- 4.05578 2 3 tcp 140 ------- 1 0.0 3.0 68 167
+ 4.07328 2 3 tcp 140 ------- 1 0.0 3.0 69 168
- 4.07328 2 3 tcp 140 ------- 1 0.0 3.0 69 168
+ 4.09078 2 3 tcp 140 ------- 1 0.0 3.0 70 169
- 4.09078 2 3 tcp 140 ------- 1 0.0 3.0 70 169
+ 4.10828 2 3 tcp 140 ------- 1 0.0 3.0 71 170
- 4.10828 2 3 tcp 140 ------- 1 0.0 3.0 71 170
r 4.12078 2 3 tcp 140 ------- 1 0.0 3.0 65 162
+ 4.12578 2 3 tcp 140 ------- 1 0.0 3.0 72 171
- 4.12578 2 3 tcp 140 ------- 1 0.0 3.0 72 171
r 4.13828 2 3 tcp 140 ------- 1 0.0 3.0 66 164
+ 4.14328 2 3 tcp 140 ------- 1 0.0 3.0 73 172
- 4.14328 2 3 tcp 140 ------- 1 0.0 3.0 73 172
r 4.15578 2 3 tcp 140 ------- 1 0.0 3.0 67 166
+ 4.16078 2 3 tcp 140 ------- 1 0.0 3.0 74 173
- 4.16078 2 3 tcp 140 ------- 1 0.0 3.0 74 173
r 4.17328 2 3 tcp 140 ------- 1 0.0 3.0 68 167
r 4.19078 2 3 tcp 140 ------- 1 0.0 3.0 69 168
+ 4.19578 2 3 tcp 140 ------- 2 1.0 3.1 15 174
- 4.19578 2 3 tcp 140 ------- 2 1.0 3.1 15 174
r 4.20828 2 3 tcp 140 ------- 1 0.0 3.0 70 169
+ 4.21328 2 3 tcp 140 ------- 2 1.0 3.1 16 175
- 4.21328 2 3 tcp 140 ------- 2 1.0 3.1 16 175
+ 4.2144 2 3 tcp 140 ------- 2 1.0 3.1 17 176
r 4.22578 2 3 tcp 140 ------- 1 0.0 3.0 71 170
+ 4.23078 2 3 tcp 140 ------- 2 1.0 3.1 18 178
- 4.23078 2 3 tcp 140 ------- 2 1.0 3.1 17 176
r 4.24328 2 3 tcp 140 ------- 1 0.0 3.0 72 171
- 4.24828 2 3 tcp 140 ------- 2 1.0 3.1 18 178
r 4.26078 2 3 tcp 140 ------- 1 0.0 3.0 73 172
r 4.27828 2 3 tcp 140 ------- 1 0.0 3.0 74 173
r 4.31328 2 3 tcp 140 ------- 2 1.0 3.1 15 174
r 4.33078 2 3 tcp 140 ------- 2 1.0 3.1 16 175
r 4.34828 2 3 tcp 140 ------- 2 1.0 3.1 17 176
r 4.36578 2 3 tcp 140 ------- 2 1.0 3.1 18 178
+ 4.42722 2 3 tcp 140 ------- 1 0.0 3.0 75 189
- 4.42722 2 3 tcp 140 ------- 1 0.0 3.0 75 189
+ 4.44472 2 3 tcp 140 ------- 1 0.0 3.0 76 191
- 4.44472 2 3 tcp 140 ------- 1 0.0 3.0 76 191
+ 4.46222 2 3 tcp 140 ------- 1 0.0 3.0 77 193
- 4.46222 2 3 tcp 140 ------- 1 0.0 3.0 77 193
+ 4.47972 2 3 tcp 140 ------- 1 0.0 3.0 78 195
- 4.47972 2 3 tcp 140 ------- 1 0.0 3.0 78 195
+ 4.49722 2 3 tcp 140 ------- 1 0.0 3.0 79 196
- 4.49722 2 3 tcp 140 ------- 1 0.0 3.0 79 196
+ 4.51472 2 3 tcp 140 ------- 1 0.0 3.0 80 197
- 4.51472 2 3 tcp 140 ------- 1 0.0 3.0 80 197
+ 4.53222 2 3 tcp 140 ------- 1 0.0 3.0 81 198
- 4.53222 2 3 tcp 140 ------- 1 0.0 3.0 81 198
r 4.54472 2 3 tcp 140 ------- 1 0.0 3.0 75 189
+ 4.54972 2 3 tcp 140 ------- 1 0.0 3.0 82 199
- 4.54972 2 3 tcp 140 ------- 1 0.0 3.0 82 199
r 4.56222 2 3 tcp 140 ------- 1 0.0 3.0 76 191
+ 4.56722 2 3 tcp 140 ------- 1 0.0 3.0 83 200
- 4.56722 2 3 tcp 140 ------- 1 0.0 3.0 83 200
r 4.57972 2 3 tcp 140 ------- 1 0.0 3.0 77 193
+ 4.58472 2 3 tcp 140 ------- 1 0.0 3.0 84 201
- 4.58472 2 3 tcp 140 ------- 1 0.0 3.0 84 201
r 4.59722 2 3 tcp 140 ------- 1 0.0 3.0 78 195
r 4.61472 2 3 tcp 140 ------- 1 0.0 3.0 79 196
+ 4.61972 2 3 tcp 140 ------- 2 1.0 3.1 19 202
- 4.61972 2 3 tcp 140 ------- 2 1.0 3.1 19 202
r 4.63222 2 3 tcp 140 ------- 1 0.0 3.0 80 197
+ 4.63722 2 3 tcp 140 ------- 2 1.0 3.1 20 203
- 4.63722 2 3 tcp 140 ------- 2 1.0 3.1 20 203
r 4.64972 2 3 tcp 140 ------- 1 0.0 3.0 81 198
+ 4.65472 2 3 tcp 140 ------- 2 1.0 3.1 21 205
- 4.65472 2 3 tcp 140 ------- 2 1.0 3.1 21 205
r 4.66722 2 3 tcp 140 ------- 1 0.0 3.0 82 199
+ 4.67222 2 3 tcp 140 ------- 2 1.0 3.1 22 207
- 4.67222 2 3 tcp 140 ------- 2 1.0 3.1 22 207
+ 4.67334 2 3 tcp 140 ------- 2 1.0 3.1 23 208
r 4.68472 2 3 tcp 140 ------- 1 0.0 3.0 83 200
- 4.68972 2 3 tcp 140 ------- 2 1.0 3.1 23 208
r 4.70222 2 3 tcp 140 ------- 1 0.0 3.0 84 201
r 4.73722 2 3 tcp 140 ------- 2 1.0 3.1 19 202
r 4.75472 2 3 tcp 140 ------- 2 1.0 3.1 20 203
r 4.77222 2 3 tcp 140 ------- 2 1.0 3.1 21 205
r 4.78972 2 3 tcp 140 ------- 2 1.0 3.1 22 207
r 4.80722 2 3 tcp 140 ------- 2 1.0 3.1 23 208
+ 4.85116 2 3 tcp 140 ------- 1 0.0 3.0 85 218
- 4.85116 2 3 tcp 140 ------- 1 0.0 3.0 85 218
+ 4.86866 2 3 tcp 140 ------- 1 0.0 3.0 86 220
- 4.86866 2 3 tcp 140 ------- 1 0.0 3.0 86 220
+ 4.88616 2 3 tcp 140 ------- 1 0.0 3.0 87 222
- 4.88616 2 3 tcp 140 ------- 1 0.0 3.0 87 222
+ 4.90366 2 3 tcp 140 ------- 1 0.0 3.0 88 224
- 4.90366 2 3 tcp 140 ------- 1 0.0 3.0 88 224
+ 4.92116 2 3 tcp 140 ------- 1 0.0 3.0 89 226
- 4.92116 2 3 tcp 140 ------- 1 0.0 3.0 89 226
+ 4.93866 2 3 tcp 140 ------- 1 0.0 3.0 90 227
- 4.93866 2 3 tcp 140 ------- 1 0.0 3.0 90 227
+ 4.95616 2 3 tcp 140 ------- 1 0.0 3.0 91 228
- 4.95616 2 3 tcp 140 ------- 1 0.0 3.0 91 228
r 4.96866 2 3 tcp 140 ------- 1 0.0 3.0 85 218
+ 4.97366 2 3 tcp 140 ------- 1 0.0 3.0 92 229
- 4.97366 2 3 tcp 140 ------- 1 0.0 3.0 92 229
r 4.98616 2 3 tcp 140 ------- 1 0.0 3.0 86 220
+ 4.99116 2 3 tcp 140 ------- 1 0.0 3.0 93 230
- 4.99116 2 3 tcp 140 ------- 1 0.0 3.0 93 230
r 5.00366 2 3 tcp 140 ------- 1 0.0 3.0 87 222
+ 5.00866 2 3 tcp 140 ------- 1 0.0 3.0 94 231
- 5.00866 2 3 tcp 140 ------- 1 0.0 3.0 94 231
r 5.02116 2 3 tcp 140 ------- 1 0.0 3.0 88 224
r 5.03866 2 3 tcp 140 ------- 1 0.0 3.0 89 226
+ 5.04366 2 3 tcp 140 ------- 2 1.0 3.1 24 232
- 5.04366 2 3 tcp 140 ------- 2 1.0 3.1 24 232
r 5.05616 2 3 tcp 140 ------- 1 0.0 3.0 90 227
+ 5.06116 2 3 tcp 140 ------- 2 1.0 3.1 25 233
- 5.06116 2 3 tcp 140 ------- 2 1.0 3.1 25 233
r 5.07366 2 3 tcp 140 ------- 1 0.0 3.0 91 228
+ 5.07866 2 3 tcp 140 ------- 2 1.0 3.1 26 235
- 5.07866 2 3 tcp 140 ------- 2 1.0 3.1 26 235
r 5.09116 2 3 tcp 140 ------- 1 0.0 3.0 92 229
+ 5.09616 2 3 tcp 140 ------- 2 1.0 3.1 27 237
- 5.09616 2 3 tcp 140 ------- 2 1.0 3.1 27 237
r 5.10866 2 3 tcp 140 ------- 1 0.0 3.0 93 230
+ 5.11366 2 3 tcp 140 ------- 2 1.0 3.1 28 239
- 5.11366 2 3 tcp 140 ------- 2 1.0 3.1 28 239
+ 5.11478 2 3 tcp 140 ------- 2 1.0 3.1 29 240
r 5.12616 2 3 tcp 140 ------- 1 0.0 3.0 94 231
- 5.13116 2 3 tcp 140 ------- 2 1.0 3.1 29 240
r 5.16116 2 3 tcp 140 ------- 2 1.0 3.1 24 232
r 5.17866 2 3 tcp 140 ------- 2 1.0 3.1 25 233
r 5.19616 2 3 tcp 140 ------- 2 1.0 3.1 26 235
r 5.21366 2 3 tcp 140 ------- 2 1.0 3.1 27 237
r 5.23116 2 3 tcp 140 ------- 2 1.0 3.1 28 239
r 5.24866 2 3 tcp 140 ------- 2 1.0 3.1 29 240
+ 5.2751 2 3 tcp 140 ------- 1 0.0 3.0 95 249
- 5.2751 2 3 tcp 140 ------- 1 0.0 3.0 95 249
+ 5.2926 2 3 tcp 140 ------- 1 0.0 3.0 96 251
- 5.2926 2 3 tcp 140 ------- 1 0.0 3.0 96 251
+ 5.3101 2 3 tcp 140 ------- 1 0.0 3.0 97 253
- 5.3101 2 3 tcp 140 ------- 1 0.0 3.0 97 253
+ 5.3276 2 3 tcp 140 ------- 1 0.0 3.0 98 255
- 5.3276 2 3 tcp 140 ------- 1 0.0 3.0 98 255
+ 5.3451 2 3 tcp 140 ------- 1 0.0 3.0 99 257
- 5.3451 2 3 tcp 140 ------- 1 0.0 3.0 99 257
+ 5.3626 2 3 tcp 140 ------- 1 0.0 3.0 100 259
- 5.3626 2 3 tcp 140 ------- 1 0.0 3.0 100 259
+ 5.3801 2 3 tcp 140 ------- 1 0.0 3.0 101 260
- 5.3801 2 3 tcp 140 ------- 1 0.0 3.0 101 260
r 5.3926 2 3 tcp 140 ------- 1 0.0 3.0 95 249
+ 5.3976 2 3 tcp 140 ------- 1 0.0 3.0 102 261
- 5.3976 2 3 tcp 140 ------- 1 0.0 3.0 102 261
r 5.4101 2 3 tcp 140 ------- 1 0.0 3.0 96 251
+ 5.4151 2 3 tcp 140 ------- 1 0.0 3.0 103 262
- 5.4151 2 3 tcp 140 ------- 1 0.0 3.0 103 262
r 5.4276 2 3 tcp 140 ------- 1 0.0 3.0 97 253
+ 5.4326 2 3 tcp 140 ------- 1 0.0 3.0 104 263
- 5.4326 2 3 tcp 140 ------- 1 0.0 3.0 104 263
r 5.4451 2 3 tcp 140 ------- 1 0.0 3.0 98 255
r 5.4626 2 3 tcp 140 ------- 1 0.0 3.0 99 257
+ 5.4676 2 3 tcp 140 ------- 2 1.0 3.1 30 264
- 5.4676 2 3 tcp 140 ------- 2 1.0 3.1 30 264
r 5.4801 2 3 tcp 140 ------- 1 0.0 3.0 100 259
+ 5.4851 2 3 tcp 140 ------- 2 1.0 3.1 31 265
- 5.4851 2 3 tcp 140 ------- 2 1.0 3.1 31 265
r 5.4976 2 3 tcp 140 ------- 1 0.0 3.0 101 260
+ 5.5026 2 3 tcp 140 ------- 2 1.0 3.1 32 267
- 5.5026 2 3 tcp 140 ------- 2 1.0 3.1 32 267
r 5.5151 2 3 tcp 140 ------- 1 0.0 3.0 102 261
+ 5.5201 2 3 tcp 140 ------- 2 1.0 3.1 33 269
- 5.5201 2 3 tcp 140 ------- 2 1.0 3.1 33 269
r 5.5326 2 3 tcp 140 ------- 1 0.0 3.0 103 262
+ 5.5376 2 3 tcp 140 ------- 2 1.0 3.1 34 271
- 5.5376 2 3 tcp 140 ------- 2 1.0 3.1 34 271
r 5.5501 2 3 tcp 140 ------- 1 0.0 3.0 104 263
+ 5.5551 2 3 tcp 140 ------- 2 1.0 3.1 35 273
- 5.5551 2 3 tcp 140 ------- 2 1.0 3.1 35 273
+ 5.55622 2 3 tcp 140 ------- 2 1.0 3.1 36 274
- 5.5726 2 3 tcp 140 ------- 2 1.0 3.1 36 274
r 5.5851 2 3 tcp 140 ------- 2 1.0 3.1 30 264
r 5.6026 2 3 tcp 140 ------- 2 1.0 3.1 31 265
r 5.6201 2 3 tcp 140 ------- 2 1.0 3.1 32 267
r 5.6376 2 3 tcp 140 ------- 2 1.0 3.1 33 269
r 5.6551 2 3 tcp 140 ------- 2 1.0 3.1 34 271
r 5.6726 2 3 tcp 140 ------- 2 1.0 3.1 35 273
r 5.6901 2 3 tcp 140 ------- 2 1.0 3.1 36 274
+ 5.69904 2 3 tcp 140 ------- 1 0.0 3.0 105 282
- 5.69904 2 3 tcp 140 ------- 1 0.0 3.0 105 282
+ 5.71654 2 3 tcp 140 ------- 1 0.0 3.0 106 284
- 5.71654 2 3 tcp 140 ------- 1 0.0 3.0 106 284
+ 5.73404 2 3 tcp 140 ------- 1 0.0 3.0 107 286
- 5.73404 2 3 tcp 140 ------- 1 0.0 3.0 107 286
+ 5.75154 2 3 tcp 140 ------- 1 0.0 3.0 108 288
- 5.75154 2 3 tcp 140 ------- 1 0.0 3.0 108 288
+ 5.76904 2 3 tcp 140 ------- 1 0.0 3.0 109 290
- 5.76904 2 3 tcp 140 ------- 1 0.0 3.0 109 290
+ 5.78654 2 3 tcp 140 ------- 1 0.0 3.0 110 292
- 5.78654 2 3 tcp 140 ------- 1 0.0 3.0 110 292
+ 5.80404 2 3 tcp 140 ------- 1 0.0 3.0 111 294
- 5.80404 2 3 tcp 140 ------- 1 0.0 3.0 111 294
r 5.81654 2 3 tcp 140 ------- 1 0.0 3.0 105 282
+ 5.82154 2 3 tcp 140 ------- 1 0.0 3.0 112 295
- 5.82154 2 3 tcp 140 ------- 1 0.0 3.0 112 295
r 5.83404 2 3 tcp 140 ------- 1 0.0 3.0 106 284
+ 5.83904 2 3 tcp 140 ------- 1 0.0 3.0 113 296
- 5.83904 2 3 tcp 140 ------- 1 0.0 3.0 113 296
r 5.85154 2 3 tcp 140 ------- 1 0.0 3.0 107 286
+ 5.85654 2 3 tcp 140 ------- 1 0.0 3.0 114 297
- 5.85654 2 3 tcp 140 ------- 1 0.0 3.0 114 297
r 5.86904 2 3 tcp 140 ------- 1 0.0 3.0 108 288
r 5.88654 2 3 tcp 140 ------- 1 0.0 3.0 109 290
+ 5.89154 2 3 tcp 140 ------- 2 1.0 3.1 37 298
- 5.89154 2 3 tcp 140 ------- 2 1.0 3.1 37 298
r 5.90404 2 3 tcp 140 ------- 1 0.0 3.0 110 292
+ 5.90904 2 3 tcp 140 ------- 2 1.0 3.1 38 299
- 5.90904 2 3 tcp 140 ------- 2 1.0 3.1 38 299
r 5.92154 2 3 tcp 140 ------- 1 0.0 3.0 111 294
+ 5.92654 2 3 tcp 140 ------- 2 1.0 3.1 39 301
- 5.92654 2 3 tcp 140 ------- 2 1.0 3.1 39 301
r 5.93904 2 3 tcp 140 ------- 1 0.0 3.0 112 295
+ 5.94404 2 3 tcp 140 ------- 2 1.0 3.1 40 303
- 5.94404 2 3 tcp 140 ------- 2 1.0 3.1 40 303
r 5.95654 2 3 tcp 140 ------- 1 0.0 3.0 113 296
+ 5.96154 2 3 tcp 140 ------- 2 1.0 3.1 41 305
- 5.96154 2 3 tcp 140 ------- 2 1.0 3.1 41 305
r 5.97404 2 3 tcp 140 ------- 1 0.0 3.0 114 297
+ 5.97904 2 3 tcp 140 ------- 2 1.0 3.1 42 307
- 5.97904 2 3 tcp 140 ------- 2 1.0 3.1 42 307
+ 5.99654 2 3 tcp 140 ------- 2 1.0 3.1 43 309
- 5.99654 2 3 tcp 140 ------- 2 1.0 3.1 43 309
