+ 0.11016 3 4 tcp 40 ------- 1 0.0 9.0 0 0
- 0.11016 3 4 tcp 40 ------- 1 0.0 9.0 0 0
r 0.31141 3 4 tcp 40 ------- 1 0.0 9.0 0 0
+ 0.59434 3 4 tcp 140 ------- 1 0.0 9.0 1 2
- 0.59434 3 4 tcp 140 ------- 1 0.0 9.0 1 2
+ 0.5949 3 4 tcp 140 ------- 1 0.0 9.0 2 3
- 0.598715 3 4 tcp 140 ------- 1 0.0 9.0 2 3
r 0.798715 3 4 tcp 140 ------- 1 0.0 9.0 1 2
r 0.80309 3 4 tcp 140 ------- 1 0.0 9.0 2 3
+ 1.082845 3 4 tcp 140 ------- 1 0.0 9.0 3 6
- 1.082845 3 4 tcp 140 ------- 1 0.0 9.0 3 6
+ 1.083405 3 4 tcp 140 ------- 1 0.0 9.0 4 7
+ 1.08722 3 4 tcp 140 ------- 1 0.0 9.0 5 8
- 1.08722 3 4 tcp 140 ------- 1 0.0 9.0 4 7
+ 1.08778 3 4 tcp 140 ------- 1 0.0 9.0 6 9
- 1.091595 3 4 tcp 140 ------- 1 0.0 9.0 5 8
- 1.09597 3 4 tcp 140 ------- 1 0.0 9.0 6 9
r 1.28722 3 4 tcp 140 ------- 1 0.0 9.0 3 6
r 1.291595 3 4 tcp 140 ------- 1 0.0 9.0 4 7
r 1.29597 3 4 tcp 140 ------- 1 0.0 9.0 5 8
r 1.300345 3 4 tcp 140 ------- 1 0.0 9.0 6 9
+ 1.57135 3 4 tcp 140 ------- 1 0.0 9.0 7 14
- 1.57135 3 4 tcp 140 ------- 1 0.0 9.0 7 14
+ 1.57191 3 4 tcp 140 ------- 1 0.0 9.0 8 15
+ 1.575725 3 4 tcp 140 ------- 1 0.0 9.0 9 16
- 1.575725 3 4 tcp 140 ------- 1 0.0 9.0 8 15
+ 1.576285 3 4 tcp 140 ------- 1 0.0 9.0 10 17
+ 1.5801 3 4 tcp 140 ------- 1 0.0 9.0 11 18
- 1.5801 3 4 tcp 140 ------- 1 0.0 9.0 9 16
+ 1.58066 3 4 tcp 140 ------- 1 0.0 9.0 12 19
+ 1.584475 3 4 tcp 140 ------- 1 0.0 9.0 13 20
- 1.584475 3 4 tcp 140 ------- 1 0.0 9.0 10 17
+ 1.585035 3 4 tcp 140 ------- 1 0.0 9.0 14 21
- 1.58885 3 4 tcp 140 ------- 1 0.0 9.0 11 18
- 1.593225 3 4 tcp 140 ------- 1 0.0 9.0 12 19
- 1.5976 3 4 tcp 140 ------- 1 0.0 9.0 13 20
- 1.601975 3 4 tcp 140 ------- 1 0.0 9.0 14 21
r 1.775725 3 4 tcp 140 ------- 1 0.0 9.0 7 14
r 1.7801 3 4 tcp 140 ------- 1 0.0 9.0 8 15
r 1.784475 3 4 tcp 140 ------- 1 0.0 9.0 9 16
r 1.78885 3 4 tcp 140 ------- 1 0.0 9.0 10 17
r 1.793225 3 4 tcp 140 ------- 1 0.0 9.0 11 18
r 1.7976 3 4 tcp 140 ------- 1 0.0 9.0 12 19
r 1.801975 3 4 tcp 140 ------- 1 0.0 9.0 13 20
r 1.80635 3 4 tcp 140 ------- 1 0.0 9.0 14 21
+ 2.059855 3 4 tcp 140 ------- 1 0.0 9.0 15 30
- 2.059855 3 4 tcp 140 ------- 1 0.0 9.0 15 30
+ 2.060415 3 4 tcp 140 ------- 1 0.0 9.0 16 31
+ 2.06423 3 4 tcp 140 ------- 1 0.0 9.0 17 32
- 2.06423 3 4 tcp 140 ------- 1 0.0 9.0 16 31
+ 2.06479 3 4 tcp 140 ------- 1 0.0 9.0 18 33
+ 2.068605 3 4 tcp 140 ------- 1 0.0 9.0 19 34
- 2.068605 3 4 tcp 140 ------- 1 0.0 9.0 17 32
+ 2.069165 3 4 tcp 140 ------- 1 0.0 9.0 20 35
+ 2.07298 3 4 tcp 140 ------- 1 0.0 9.0 21 36
- 2.07298 3 4 tcp 140 ------- 1 0.0 9.0 18 33
+ 2.07354 3 4 tcp 140 ------- 1 0.0 9.0 22 37
+ 2.077355 3 4 tcp 140 ------- 1 0.0 9.0 23 38
- 2.077355 3 4 tcp 140 ------- 1 0.0 9.0 19 34
+ 2.077915 3 4 tcp 140 ------- 1 0.0 9.0 24 39
+ 2.08173 3 4 tcp 140 ------- 1 0.0 9.0 25 40
- 2.08173 3 4 tcp 140 ------- 1 0.0 9.0 20 35
+ 2.08229 3 4 tcp 140 ------- 1 0.0 9.0 26 41
+ 2.086105 3 4 tcp 140 ------- 1 0.0 9.0 27 42
- 2.086105 3 4 tcp 140 ------- 1 0.0 9.0 21 36
+ 2.086665 3 4 tcp 140 ------- 1 0.0 9.0 28 43
+ 2.09048 3 4 tcp 140 ------- 1 0.0 9.0 29 44
d 2.09048 3 4 tcp 140 ------- 1 0.0 9.0 29 44
- 2.09048 3 4 tcp 140 ------- 1 0.0 9.0 22 37
- 2.094855 3 4 tcp 140 ------- 1 0.0 9.0 23 38
- 2.09923 3 4 tcp 140 ------- 1 0.0 9.0 24 39
- 2.103605 3 4 tcp 140 ------- 1 0.0 9.0 25 40
- 2.10798 3 4 tcp 140 ------- 1 0.0 9.0 26 41
- 2.112355 3 4 tcp 140 ------- 1 0.0 9.0 27 42
- 2.11673 3 4 tcp 140 ------- 1 0.0 9.0 28 43
r 2.26423 3 4 tcp 140 ------- 1 0.0 9.0 15 30
r 2.268605 3 4 tcp 140 ------- 1 0.0 9.0 16 31
r 2.27298 3 4 tcp 140 ------- 1 0.0 9.0 17 32
r 2.277355 3 4 tcp 140 ------- 1 0.0 9.0 18 33
r 2.28173 3 4 tcp 140 ------- 1 0.0 9.0 19 34
r 2.286105 3 4 tcp 140 ------- 1 0.0 9.0 20 35
r 2.29048 3 4 tcp 140 ------- 1 0.0 9.0 21 36
r 2.294855 3 4 tcp 140 ------- 1 0.0 9.0 22 37
r 2.29923 3 4 tcp 140 ------- 1 0.0 9.0 23 38
r 2.303605 3 4 tcp 140 ------- 1 0.0 9.0 24 39
r 2.30798 3 4 tcp 140 ------- 1 0.0 9.0 25 40
r 2.312355 3 4 tcp 140 ------- 1 0.0 9.0 26 41
r 2.31673 3 4 tcp 140 ------- 1 0.0 9.0 27 42
r 2.321105 3 4 tcp 140 ------- 1 0.0 9.0 28 43
+ 2.54836 3 4 tcp 140 ------- 1 0.0 9.0 30 59
- 2.54836 3 4 tcp 140 ------- 1 0.0 9.0 30 59
+ 2.552735 3 4 tcp 140 ------- 1 0.0 9.0 31 60
- 2.552735 3 4 tcp 140 ------- 1 0.0 9.0 31 60
+ 2.55711 3 4 tcp 140 ------- 1 0.0 9.0 32 61
- 2.55711 3 4 tcp 140 ------- 1 0.0 9.0 32 61
+ 2.561485 3 4 tcp 140 ------- 1 0.0 9.0 33 62
- 2.561485 3 4 tcp 140 ------- 1 0.0 9.0 33 62
+ 2.56586 3 4 tcp 140 ------- 1 0.0 9.0 34 63
- 2.56586 3 4 tcp 140 ------- 1 0.0 9.0 34 63
+ 2.570235 3 4 tcp 140 ------- 1 0.0 9.0 35 64
- 2.570235 3 4 tcp 140 ------- 1 0.0 9.0 35 64
+ 2.57461 3 4 tcp 140 ------- 1 0.0 9.0 36 65
- 2.57461 3 4 tcp 140 ------- 1 0.0 9.0 36 65
+ 2.578985 3 4 tcp 140 ------- 1 0.0 9.0 37 66
- 2.578985 3 4 tcp 140 ------- 1 0.0 9.0 37 66
+ 2.58336 3 4 tcp 140 ------- 1 0.0 9.0 38 67
- 2.58336 3 4 tcp 140 ------- 1 0.0 9.0 38 67
+ 2.587735 3 4 tcp 140 ------- 1 0.0 9.0 39 68
- 2.587735 3 4 tcp 140 ------- 1 0.0 9.0 39 68
+ 2.59211 3 4 tcp 140 ------- 1 0.0 9.0 40 69
- 2.59211 3 4 tcp 140 ------- 1 0.0 9.0 40 69
+ 2.596485 3 4 tcp 140 ------- 1 0.0 9.0 41 70
- 2.596485 3 4 tcp 140 ------- 1 0.0 9.0 41 70
+ 2.60086 3 4 tcp 140 ------- 1 0.0 9.0 42 71
- 2.60086 3 4 tcp 140 ------- 1 0.0 9.0 42 71
+ 2.605235 3 4 tcp 140 ------- 1 0.0 9.0 43 72
- 2.605235 3 4 tcp 140 ------- 1 0.0 9.0 43 72
r 2.752735 3 4 tcp 140 ------- 1 0.0 9.0 30 59
r 2.75711 3 4 tcp 140 ------- 1 0.0 9.0 31 60
r 2.761485 3 4 tcp 140 ------- 1 0.0 9.0 32 61
r 2.76586 3 4 tcp 140 ------- 1 0.0 9.0 33 62
r 2.770235 3 4 tcp 140 ------- 1 0.0 9.0 34 63
r 2.77461 3 4 tcp 140 ------- 1 0.0 9.0 35 64
r 2.778985 3 4 tcp 140 ------- 1 0.0 9.0 36 65
r 2.78336 3 4 tcp 140 ------- 1 0.0 9.0 37 66
r 2.787735 3 4 tcp 140 ------- 1 0.0 9.0 38 67
r 2.79211 3 4 tcp 140 ------- 1 0.0 9.0 39 68
r 2.796485 3 4 tcp 140 ------- 1 0.0 9.0 40 69
r 2.80086 3 4 tcp 140 ------- 1 0.0 9.0 41 70
r 2.805235 3 4 tcp 140 ------- 1 0.0 9.0 42 71
r 2.80961 3 4 tcp 140 ------- 1 0.0 9.0 43 72
+ 3.036865 3 4 tcp 140 ------- 1 0.0 9.0 44 87
- 3.036865 3 4 tcp 140 ------- 1 0.0 9.0 44 87
+ 3.04124 3 4 tcp 140 ------- 1 0.0 9.0 45 88
- 3.04124 3 4 tcp 140 ------- 1 0.0 9.0 45 88
+ 3.045615 3 4 tcp 140 ---A--- 1 0.0 9.0 29 89
- 3.045615 3 4 tcp 140 ---A--- 1 0.0 9.0 29 89
r 3.24124 3 4 tcp 140 ------- 1 0.0 9.0 44 87
r 3.245615 3 4 tcp 140 ------- 1 0.0 9.0 45 88
r 3.24999 3 4 tcp 140 ---A--- 1 0.0 9.0 29 89
+ 3.53412 3 4 tcp 140 ------- 1 0.0 9.0 46 93
- 3.53412 3 4 tcp 140 ------- 1 0.0 9.0 46 93
+ 3.53468 3 4 tcp 140 ------- 1 0.0 9.0 47 94
- 3.538495 3 4 tcp 140 ------- 1 0.0 9.0 47 94
r 3.738495 3 4 tcp 140 ------- 1 0.0 9.0 46 93
r 3.74287 3 4 tcp 140 ------- 1 0.0 9.0 47 94
+ 4.022625 3 4 tcp 140 ------- 1 0.0 9.0 48 97
- 4.022625 3 4 tcp 140 ------- 1 0.0 9.0 48 97
+ 4.023185 3 4 tcp 140 ------- 1 0.0 9.0 49 98
+ 4.027 3 4 tcp 140 ------- 1 0.0 9.0 50 99
- 4.027 3 4 tcp 140 ------- 1 0.0 9.0 49 98
+ 4.02756 3 4 tcp 140 ------- 1 0.0 9.0 51 100
- 4.031375 3 4 tcp 140 ------- 1 0.0 9.0 50 99
- 4.03575 3 4 tcp 140 ------- 1 0.0 9.0 51 100
r 4.227 3 4 tcp 140 ------- 1 0.0 9.0 48 97
r 4.231375 3 4 tcp 140 ------- 1 0.0 9.0 49 98
r 4.23575 3 4 tcp 140 ------- 1 0.0 9.0 50 99
r 4.240125 3 4 tcp 140 ------- 1 0.0 9.0 51 100
+ 4.51113 3 4 tcp 140 ------- 1 0.0 9.0 52 105
- 4.51113 3 4 tcp 140 ------- 1 0.0 9.0 52 105
+ 4.51169 3 4 tcp 140 ------- 1 0.0 9.0 53 106
+ 4.515505 3 4 tcp 140 ------- 1 0.0 9.0 54 107
- 4.515505 3 4 tcp 140 ------- 1 0.0 9.0 53 106
+ 4.516065 3 4 tcp 140 ------- 1 0.0 9.0 55 108
+ 4.51988 3 4 tcp 140 ------- 1 0.0 9.0 56 109
- 4.51988 3 4 tcp 140 ------- 1 0.0 9.0 54 107
+ 4.52044 3 4 tcp 140 ------- 1 0.0 9.0 57 110
+ 4.524255 3 4 tcp 140 ------- 1 0.0 9.0 58 111
- 4.524255 3 4 tcp 140 ------- 1 0.0 9.0 55 108
- 4.52863 3 4 tcp 140 ------- 1 0.0 9.0 56 109
- 4.533005 3 4 tcp 140 ------- 1 0.0 9.0 57 110
- 4.53738 3 4 tcp 140 ------- 1 0.0 9.0 58 111
r 4.715505 3 4 tcp 140 ------- 1 0.0 9.0 52 105
r 4.71988 3 4 tcp 140 ------- 1 0.0 9.0 53 106
r 4.724255 3 4 tcp 140 ------- 1 0.0 9.0 54 107
r 4.72863 3 4 tcp 140 ------- 1 0.0 9.0 55 108
r 4.733005 3 4 tcp 140 ------- 1 0.0 9.0 56 109
r 4.73738 3 4 tcp 140 ------- 1 0.0 9.0 57 110
r 4.741755 3 4 tcp 140 ------- 1 0.0 9.0 58 111
+ 4.999635 3 4 tcp 140 ------- 1 0.0 9.0 59 119
- 4.999635 3 4 tcp 140 ------- 1 0.0 9.0 59 119
+ 5.00401 3 4 tcp 140 ------- 1 0.0 9.0 60 120
- 5.00401 3 4 tcp 140 ------- 1 0.0 9.0 60 120
+ 5.008385 3 4 tcp 140 ------- 1 0.0 9.0 61 121
- 5.008385 3 4 tcp 140 ------- 1 0.0 9.0 61 121
+ 5.01276 3 4 tcp 140 ------- 1 0.0 9.0 62 122
- 5.01276 3 4 tcp 140 ------- 1 0.0 9.0 62 122
+ 5.017135 3 4 tcp 140 ------- 1 0.0 9.0 63 123
- 5.017135 3 4 tcp 140 ------- 1 0.0 9.0 63 123
+ 5.02151 3 4 tcp 140 ------- 1 0.0 9.0 64 124
- 5.02151 3 4 tcp 140 ------- 1 0.0 9.0 64 124
+ 5.025885 3 4 tcp 140 ------- 1 0.0 9.0 65 125
- 5.025885 3 4 tcp 140 ------- 1 0.0 9.0 65 125
+ 5.026445 3 4 tcp 140 ------- 1 0.0 9.0 66 126
- 5.03026 3 4 tcp 140 ------- 1 0.0 9.0 66 126
r 5.20401 3 4 tcp 140 ------- 1 0.0 9.0 59 119
r 5.208385 3 4 tcp 140 ------- 1 0.0 9.0 60 120
r 5.21276 3 4 tcp 140 ------- 1 0.0 9.0 61 121
r 5.217135 3 4 tcp 140 ------- 1 0.0 9.0 62 122
r 5.22151 3 4 tcp 140 ------- 1 0.0 9.0 63 123
r 5.225885 3 4 tcp 140 ------- 1 0.0 9.0 64 124
r 5.23026 3 4 tcp 140 ------- 1 0.0 9.0 65 125
r 5.234635 3 4 tcp 140 ------- 1 0.0 9.0 66 126
+ 5.48814 3 4 tcp 140 ------- 1 0.0 9.0 67 135
- 5.48814 3 4 tcp 140 ------- 1 0.0 9.0 67 135
+ 5.492515 3 4 tcp 140 ------- 1 0.0 9.0 68 136
- 5.492515 3 4 tcp 140 ------- 1 0.0 9.0 68 136
+ 5.49689 3 4 tcp 140 ------- 1 0.0 9.0 69 137
- 5.49689 3 4 tcp 140 ------- 1 0.0 9.0 69 137
+ 5.501265 3 4 tcp 140 ------- 1 0.0 9.0 70 138
- 5.501265 3 4 tcp 140 ------- 1 0.0 9.0 70 138
+ 5.50564 3 4 tcp 140 ------- 1 0.0 9.0 71 139
- 5.50564 3 4 tcp 140 ------- 1 0.0 9.0 71 139
+ 5.510015 3 4 tcp 140 ------- 1 0.0 9.0 72 140
- 5.510015 3 4 tcp 140 ------- 1 0.0 9.0 72 140
+ 5.51439 3 4 tcp 140 ------- 1 0.0 9.0 73 141
- 5.51439 3 4 tcp 140 ------- 1 0.0 9.0 73 141
+ 5.518765 3 4 tcp 140 ------- 1 0.0 9.0 74 142
- 5.518765 3 4 tcp 140 ------- 1 0.0 9.0 74 142
+ 5.519325 3 4 tcp 140 ------- 1 0.0 9.0 75 143
- 5.52314 3 4 tcp 140 ------- 1 0.0 9.0 75 143
r 5.692515 3 4 tcp 140 ------- 1 0.0 9.0 67 135
r 5.69689 3 4 tcp 140 ------- 1 0.0 9.0 68 136
r 5.701265 3 4 tcp 140 ------- 1 0.0 9.0 69 137
r 5.70564 3 4 tcp 140 ------- 1 0.0 9.0 70 138
r 5.710015 3 4 tcp 140 ------- 1 0.0 9.0 71 139
r 5.71439 3 4 tcp 140 ------- 1 0.0 9.0 72 140
r 5.718765 3 4 tcp 140 ------- 1 0.0 9.0 73 141
r 5.72314 3 4 tcp 140 ------- 1 0.0 9.0 74 142
r 5.727515 3 4 tcp 140 ------- 1 0.0 9.0 75 143
+ 5.976645 3 4 tcp 140 ------- 1 0.0 9.0 76 153
- 5.976645 3 4 tcp 140 ------- 1 0.0 9.0 76 153
+ 5.98102 3 4 tcp 140 ------- 1 0.0 9.0 77 154
- 5.98102 3 4 tcp 140 ------- 1 0.0 9.0 77 154
+ 5.985395 3 4 tcp 140 ------- 1 0.0 9.0 78 155
- 5.985395 3 4 tcp 140 ------- 1 0.0 9.0 78 155
+ 5.98977 3 4 tcp 140 ------- 1 0.0 9.0 79 156
- 5.98977 3 4 tcp 140 ------- 1 0.0 9.0 79 156
+ 5.994145 3 4 tcp 140 ------- 1 0.0 9.0 80 157
- 5.994145 3 4 tcp 140 ------- 1 0.0 9.0 80 157
+ 5.99852 3 4 tcp 140 ------- 1 0.0 9.0 81 158
- 5.99852 3 4 tcp 140 ------- 1 0.0 9.0 81 158
