+ 0.30532 3 2 ack 40 ------- 1 3.0 0.0 0 1
- 0.30532 3 2 ack 40 ------- 1 3.0 0.0 0 1
r 0.41032 3 2 ack 40 ------- 1 3.0 0.0 0 1
+ 0.72926 3 2 ack 40 ------- 1 3.0 0.0 1 5
- 0.72926 3 2 ack 40 ------- 1 3.0 0.0 1 5
+ 0.74676 3 2 ack 40 ------- 1 3.0 0.0 2 6
- 0.74676 3 2 ack 40 ------- 1 3.0 0.0 2 6
+ 0.75176 3 2 ack 40 ------- 2 3.1 1.0 0 7
- 0.75176 3 2 ack 40 ------- 2 3.1 1.0 0 7
r 0.83426 3 2 ack 40 ------- 1 3.0 0.0 1 5
r 0.85176 3 2 ack 40 ------- 1 3.0 0.0 2 6
r 0.85676 3 2 ack 40 ------- 2 3.1 1.0 0 7
+ 1.1532 3 2 ack 40 ------- 1 3.0 0.0 3 14
- 1.1532 3 2 ack 40 ------- 1 3.0 0.0 3 14
+ 1.1707 3 2 ack 40 ------- 1 3.0 0.0 4 15
- 1.1707 3 2 ack 40 ------- 1 3.0 0.0 4 15
+ 1.1882 3 2 ack 40 ------- 1 3.0 0.0 5 16
- 1.1882 3 2 ack 40 ------- 1 3.0 0.0 5 16
+ 1.2057 3 2 ack 40 ------- 1 3.0 0.0 6 17
- 1.2057 3 2 ack 40 ------- 1 3.0 0.0 6 17
+ 1.2232 3 2 ack 40 ------- 2 3.1 1.0 1 18
- 1.2232 3 2 ack 40 ------- 2 3.1 1.0 1 18
+ 1.2407 3 2 ack 40 ------- 2 3.1 1.0 2 19
- 1.2407 3 2 ack 40 ------- 2 3.1 1.0 2 19
r 1.2582 3 2 ack 40 ------- 1 3.0 0.0 3 14
r 1.2757 3 2 ack 40 ------- 1 3.0 0.0 4 15
r 1.2932 3 2 ack 40 ------- 1 3.0 0.0 5 16
r 1.3107 3 2 ack 40 ------- 1 3.0 0.0 6 17
r 1.3282 3 2 ack 40 ------- 2 3.1 1.0 1 18
r 1.3457 3 2 ack 40 ------- 2 3.1 1.0 2 19
+ 1.57714 3 2 ack 40 ------- 1 3.0 0.0 7 32
- 1.57714 3 2 ack 40 ------- 1 3.0 0.0 7 32
+ 1.59464 3 2 ack 40 ------- 1 3.0 0.0 8 33
- 1.59464 3 2 ack 40 ------- 1 3.0 0.0 8 33
+ 1.61214 3 2 ack 40 ------- 1 3.0 0.0 9 34
- 1.61214 3 2 ack 40 ------- 1 3.0 0.0 9 34
+ 1.62964 3 2 ack 40 ------- 1 3.0 0.0 10 35
- 1.62964 3 2 ack 40 ------- 1 3.0 0.0 10 35
+ 1.64714 3 2 ack 40 ------- 1 3.0 0.0 11 36
- 1.64714 3 2 ack 40 ------- 1 3.0 0.0 11 36
+ 1.66464 3 2 ack 40 ------- 1 3.0 0.0 12 37
- 1.66464 3 2 ack 40 ------- 1 3.0 0.0 12 37
r 1.68214 3 2 ack 40 ------- 1 3.0 0.0 7 32
+ 1.68214 3 2 ack 40 ------- 1 3.0 0.0 13 38
- 1.68214 3 2 ack 40 ------- 1 3.0 0.0 13 38
r 1.69964 3 2 ack 40 ------- 1 3.0 0.0 8 33
+ 1.69964 3 2 ack 40 ------- 1 3.0 0.0 14 39
- 1.69964 3 2 ack 40 ------- 1 3.0 0.0 14 39
r 1.71714 3 2 ack 40 ------- 1 3.0 0.0 9 34
+ 1.71714 3 2 ack 40 ------- 2 3.1 1.0 2 40
- 1.71714 3 2 ack 40 ------- 2 3.1 1.0 2 40
r 1.73464 3 2 ack 40 ------- 1 3.0 0.0 10 35
+ 1.73464 3 2 ack 40 ------- 2 3.1 1.0 2 41
- 1.73464 3 2 ack 40 ------- 2 3.1 1.0 2 41
r 1.75214 3 2 ack 40 ------- 1 3.0 0.0 11 36
r 1.76964 3 2 ack 40 ------- 1 3.0 0.0 12 37
r 1.78714 3 2 ack 40 ------- 1 3.0 0.0 13 38
r 1.80464 3 2 ack 40 ------- 1 3.0 0.0 14 39
r 1.82214 3 2 ack 40 ------- 2 3.1 1.0 2 40
r 1.83964 3 2 ack 40 ------- 2 3.1 1.0 2 41
+ 2.00108 3 2 ack 40 ------- 1 3.0 0.0 15 54
- 2.00108 3 2 ack 40 ------- 1 3.0 0.0 15 54
+ 2.01858 3 2 ack 40 ------- 1 3.0 0.0 16 55
- 2.01858 3 2 ack 40 ------- 1 3.0 0.0 16 55
+ 2.03608 3 2 ack 40 ------- 1 3.0 0.0 17 56
- 2.03608 3 2 ack 40 ------- 1 3.0 0.0 17 56
+ 2.05358 3 2 ack 40 ------- 1 3.0 0.0 18 57
- 2.05358 3 2 ack 40 ------- 1 3.0 0.0 18 57
+ 2.07108 3 2 ack 40 ------- 1 3.0 0.0 19 58
- 2.07108 3 2 ack 40 ------- 1 3.0 0.0 19 58
+ 2.08858 3 2 ack 40 ------- 1 3.0 0.0 20 59
- 2.08858 3 2 ack 40 ------- 1 3.0 0.0 20 59
r 2.10608 3 2 ack 40 ------- 1 3.0 0.0 15 54
+ 2.10608 3 2 ack 40 ------- 1 3.0 0.0 21 60
- 2.10608 3 2 ack 40 ------- 1 3.0 0.0 21 60
r 2.12358 3 2 ack 40 ------- 1 3.0 0.0 16 55
+ 2.12358 3 2 ack 40 ------- 1 3.0 0.0 22 61
- 2.12358 3 2 ack 40 ------- 1 3.0 0.0 22 61
r 2.14108 3 2 ack 40 ------- 1 3.0 0.0 17 56
+ 2.14108 3 2 ack 40 ------- 1 3.0 0.0 23 62
- 2.14108 3 2 ack 40 ------- 1 3.0 0.0 23 62
r 2.15858 3 2 ack 40 ------- 1 3.0 0.0 18 57
+ 2.15858 3 2 ack 40 ------- 1 3.0 0.0 24 63
- 2.15858 3 2 ack 40 ------- 1 3.0 0.0 24 63
r 2.17608 3 2 ack 40 ------- 1 3.0 0.0 19 58
+ 2.17608 3 2 ack 40 ------- 2 3.1 1.0 2 64
- 2.17608 3 2 ack 40 ------- 2 3.1 1.0 2 64
r 2.19358 3 2 ack 40 ------- 1 3.0 0.0 20 59
+ 2.19358 3 2 ack 40 ------- 2 3.1 1.0 2 65
- 2.19358 3 2 ack 40 ------- 2 3.1 1.0 2 65
r 2.21108 3 2 ack 40 ------- 1 3.0 0.0 21 60
r 2.22858 3 2 ack 40 ------- 1 3.0 0.0 22 61
r 2.24608 3 2 ack 40 ------- 1 3.0 0.0 23 62
r 2.26358 3 2 ack 40 ------- 1 3.0 0.0 24 63
r 2.28108 3 2 ack 40 ------- 2 3.1 1.0 2 64
r 2.29858 3 2 ack 40 ------- 2 3.1 1.0 2 65
+ 2.42502 3 2 ack 40 ------- 1 3.0 0.0 25 77
- 2.42502 3 2 ack 40 ------- 1 3.0 0.0 25 77
+ 2.44252 3 2 ack 40 ------- 1 3.0 0.0 26 78
- 2.44252 3 2 ack 40 ------- 1 3.0 0.0 26 78
+ 2.46002 3 2 ack 40 ------- 1 3.0 0.0 27 79
- 2.46002 3 2 ack 40 ------- 1 3.0 0.0 27 79
+ 2.47752 3 2 ack 40 ------- 1 3.0 0.0 28 80
- 2.47752 3 2 ack 40 ------- 1 3.0 0.0 28 80
+ 2.49502 3 2 ack 40 ------- 1 3.0 0.0 29 81
- 2.49502 3 2 ack 40 ------- 1 3.0 0.0 29 81
+ 2.51252 3 2 ack 40 ------- 1 3.0 0.0 30 82
- 2.51252 3 2 ack 40 ------- 1 3.0 0.0 30 82
r 2.53002 3 2 ack 40 ------- 1 3.0 0.0 25 77
+ 2.53002 3 2 ack 40 ------- 1 3.0 0.0 31 83
- 2.53002 3 2 ack 40 ------- 1 3.0 0.0 31 83
r 2.54752 3 2 ack 40 ------- 1 3.0 0.0 26 78
+ 2.54752 3 2 ack 40 ------- 1 3.0 0.0 32 84
- 2.54752 3 2 ack 40 ------- 1 3.0 0.0 32 84
r 2.56502 3 2 ack 40 ------- 1 3.0 0.0 27 79
+ 2.56502 3 2 ack 40 ------- 1 3.0 0.0 33 85
- 2.56502 3 2 ack 40 ------- 1 3.0 0.0 33 85
r 2.58252 3 2 ack 40 ------- 1 3.0 0.0 28 80
+ 2.58252 3 2 ack 40 ------- 1 3.0 0.0 34 86
- 2.58252 3 2 ack 40 ------- 1 3.0 0.0 34 86
r 2.60002 3 2 ack 40 ------- 1 3.0 0.0 29 81
+ 2.60002 3 2 ack 40 ------- 2 3.1 1.0 4 87
- 2.60002 3 2 ack 40 ------- 2 3.1 1.0 4 87
r 2.61752 3 2 ack 40 ------- 1 3.0 0.0 30 82
r 2.63502 3 2 ack 40 ------- 1 3.0 0.0 31 83
r 2.65252 3 2 ack 40 ------- 1 3.0 0.0 32 84
r 2.67002 3 2 ack 40 ------- 1 3.0 0.0 33 85
r 2.68752 3 2 ack 40 ------- 1 3.0 0.0 34 86
r 2.70502 3 2 ack 40 ------- 2 3.1 1.0 4 87
+ 2.84896 3 2 ack 40 ------- 1 3.0 0.0 35 100
- 2.84896 3 2 ack 40 ------- 1 3.0 0.0 35 100
+ 2.86646 3 2 ack 40 ------- 1 3.0 0.0 36 101
- 2.86646 3 2 ack 40 ------- 1 3.0 0.0 36 101
+ 2.88396 3 2 ack 40 ------- 1 3.0 0.0 37 102
- 2.88396 3 2 ack 40 ------- 1 3.0 0.0 37 102
+ 2.90146 3 2 ack 40 ------- 1 3.0 0.0 38 103
- 2.90146 3 2 ack 40 ------- 1 3.0 0.0 38 103
+ 2.91896 3 2 ack 40 ------- 1 3.0 0.0 39 104
- 2.91896 3 2 ack 40 ------- 1 3.0 0.0 39 104
+ 2.93646 3 2 ack 40 ------- 1 3.0 0.0 40 105
- 2.93646 3 2 ack 40 ------- 1 3.0 0.0 40 105
r 2.95396 3 2 ack 40 ------- 1 3.0 0.0 35 100
+ 2.95396 3 2 ack 40 ------- 1 3.0 0.0 41 106
- 2.95396 3 2 ack 40 ------- 1 3.0 0.0 41 106
r 2.97146 3 2 ack 40 ------- 1 3.0 0.0 36 101
+ 2.97146 3 2 ack 40 ------- 1 3.0 0.0 42 107
- 2.97146 3 2 ack 40 ------- 1 3.0 0.0 42 107
r 2.98896 3 2 ack 40 ------- 1 3.0 0.0 37 102
+ 2.98896 3 2 ack 40 ------- 1 3.0 0.0 43 108
- 2.98896 3 2 ack 40 ------- 1 3.0 0.0 43 108
r 3.00646 3 2 ack 40 ------- 1 3.0 0.0 38 103
+ 3.00646 3 2 ack 40 ------- 1 3.0 0.0 44 109
- 3.00646 3 2 ack 40 ------- 1 3.0 0.0 44 109
r 3.02396 3 2 ack 40 ------- 1 3.0 0.0 39 104
+ 3.02396 3 2 ack 40 ------- 2 3.1 1.0 8 110
- 3.02396 3 2 ack 40 ------- 2 3.1 1.0 8 110
r 3.04146 3 2 ack 40 ------- 1 3.0 0.0 40 105
+ 3.04146 3 2 ack 40 ------- 2 3.1 1.0 8 111
- 3.04146 3 2 ack 40 ------- 2 3.1 1.0 8 111
r 3.05896 3 2 ack 40 ------- 1 3.0 0.0 41 106
r 3.07646 3 2 ack 40 ------- 1 3.0 0.0 42 107
r 3.09396 3 2 ack 40 ------- 1 3.0 0.0 43 108
r 3.11146 3 2 ack 40 ------- 1 3.0 0.0 44 109
r 3.12896 3 2 ack 40 ------- 2 3.1 1.0 8 110
r 3.14646 3 2 ack 40 ------- 2 3.1 1.0 8 111
+ 3.2729 3 2 ack 40 ------- 1 3.0 0.0 45 125
- 3.2729 3 2 ack 40 ------- 1 3.0 0.0 45 125
+ 3.2904 3 2 ack 40 ------- 1 3.0 0.0 46 126
- 3.2904 3 2 ack 40 ------- 1 3.0 0.0 46 126
+ 3.3079 3 2 ack 40 ------- 1 3.0 0.0 47 127
- 3.3079 3 2 ack 40 ------- 1 3.0 0.0 47 127
+ 3.3254 3 2 ack 40 ------- 1 3.0 0.0 48 128
- 3.3254 3 2 ack 40 ------- 1 3.0 0.0 48 128
+ 3.3429 3 2 ack 40 ------- 1 3.0 0.0 49 129
- 3.3429 3 2 ack 40 ------- 1 3.0 0.0 49 129
+ 3.3604 3 2 ack 40 ------- 1 3.0 0.0 50 130
- 3.3604 3 2 ack 40 ------- 1 3.0 0.0 50 130
r 3.3779 3 2 ack 40 ------- 1 3.0 0.0 45 125
+ 3.3779 3 2 ack 40 ------- 1 3.0 0.0 51 131
- 3.3779 3 2 ack 40 ------- 1 3.0 0.0 51 131
r 3.3954 3 2 ack 40 ------- 1 3.0 0.0 46 126
+ 3.3954 3 2 ack 40 ------- 1 3.0 0.0 52 132
- 3.3954 3 2 ack 40 ------- 1 3.0 0.0 52 132
r 3.4129 3 2 ack 40 ------- 1 3.0 0.0 47 127
+ 3.4129 3 2 ack 40 ------- 1 3.0 0.0 53 133
- 3.4129 3 2 ack 40 ------- 1 3.0 0.0 53 133
r 3.4304 3 2 ack 40 ------- 1 3.0 0.0 48 128
+ 3.4304 3 2 ack 40 ------- 1 3.0 0.0 54 134
- 3.4304 3 2 ack 40 ------- 1 3.0 0.0 54 134
r 3.4479 3 2 ack 40 ------- 1 3.0 0.0 49 129
+ 3.4479 3 2 ack 40 ------- 2 3.1 1.0 9 135
- 3.4479 3 2 ack 40 ------- 2 3.1 1.0 9 135
r 3.4654 3 2 ack 40 ------- 1 3.0 0.0 50 130
+ 3.4654 3 2 ack 40 ------- 2 3.1 1.0 10 136
- 3.4654 3 2 ack 40 ------- 2 3.1 1.0 10 136
r 3.4829 3 2 ack 40 ------- 1 3.0 0.0 51 131
+ 3.4829 3 2 ack 40 ------- 2 3.1 1.0 11 138
- 3.4829 3 2 ack 40 ------- 2 3.1 1.0 11 138
r 3.5004 3 2 ack 40 ------- 1 3.0 0.0 52 132
r 3.5179 3 2 ack 40 ------- 1 3.0 0.0 53 133
r 3.5354 3 2 ack 40 ------- 1 3.0 0.0 54 134
r 3.5529 3 2 ack 40 ------- 2 3.1 1.0 9 135
r 3.5704 3 2 ack 40 ------- 2 3.1 1.0 10 136
r 3.5879 3 2 ack 40 ------- 2 3.1 1.0 11 138
+ 3.69684 3 2 ack 40 ------- 1 3.0 0.0 55 151
- 3.69684 3 2 ack 40 ------- 1 3.0 0.0 55 151
+ 3.71434 3 2 ack 40 ------- 1 3.0 0.0 56 152
- 3.71434 3 2 ack 40 ------- 1 3.0 0.0 56 152
+ 3.73184 3 2 ack 40 ------- 1 3.0 0.0 57 153
- 3.73184 3 2 ack 40 ------- 1 3.0 0.0 57 153
+ 3.74934 3 2 ack 40 ------- 1 3.0 0.0 58 154
- 3.74934 3 2 ack 40 ------- 1 3.0 0.0 58 154
+ 3.76684 3 2 ack 40 ------- 1 3.0 0.0 59 155
- 3.76684 3 2 ack 40 ------- 1 3.0 0.0 59 155
+ 3.78434 3 2 ack 40 ------- 1 3.0 0.0 60 156
- 3.78434 3 2 ack 40 ------- 1 3.0 0.0 60 156
r 3.80184 3 2 ack 40 ------- 1 3.0 0.0 55 151
+ 3.80184 3 2 ack 40 ------- 1 3.0 0.0 61 157
- 3.80184 3 2 ack 40 ------- 1 3.0 0.0 61 157
r 3.81934 3 2 ack 40 ------- 1 3.0 0.0 56 152
+ 3.81934 3 2 ack 40 ------- 1 3.0 0.0 62 158
- 3.81934 3 2 ack 40 ------- 1 3.0 0.0 62 158
r 3.83684 3 2 ack 40 ------- 1 3.0 0.0 57 153
+ 3.83684 3 2 ack 40 ------- 1 3.0 0.0 63 159
- 3.83684 3 2 ack 40 ------- 1 3.0 0.0 63 159
r 3.85434 3 2 ack 40 ------- 1 3.0 0.0 58 154
+ 3.85434 3 2 ack 40 ------- 1 3.0 0.0 64 160
- 3.85434 3 2 ack 40 ------- 1 3.0 0.0 64 160
r 3.87184 3 2 ack 40 ------- 1 3.0 0.0 59 155
r 3.88934 3 2 ack 40 ------- 1 3.0 0.0 60 156
+ 3.88934 3 2 ack 40 ------- 2 3.1 1.0 12 161
- 3.88934 3 2 ack 40 ------- 2 3.1 1.0 12 161
r 3.90684 3 2 ack 40 ------- 1 3.0 0.0 61 157
+ 3.90684 3 2 ack 40 ------- 2 3.1 1.0 13 163
- 3.90684 3 2 ack 40 ------- 2 3.1 1.0 13 163
r 3.92434 3 2 ack 40 ------- 1 3.0 0.0 62 158
+ 3.92434 3 2 ack 40 ------- 2 3.1 1.0 14 165
- 3.92434 3 2 ack 40 ------- 2 3.1 1.0 14 165
r 3.94184 3 2 ack 40 ------- 1 3.0 0.0 63 159
r 3.95934 3 2 ack 40 ------- 1 3.0 0.0 64 160
r 3.99434 3 2 ack 40 ------- 2 3.1 1.0 12 161
r 4.01184 3 2 ack 40 ------- 2 3.1 1.0 13 163
r 4.02934 3 2 ack 40 ------- 2 3.1 1.0 14 165
+ 4.12078 3 2 ack 40 ------- 1 3.0 0.0 65 177
- 4.12078 3 2 ack 40 ------- 1 3.0 0.0 65 177
+ 4.13828 3 2 ack 40 ------- 1 3.0 0.0 66 179
- 4.13828 3 2 ack 40 ------- 1 3.0 0.0 66 179
+ 4.15578 3 2 ack 40 ------- 1 3.0 0.0 67 180
- 4.15578 3 2 ack 40 ------- 1 3.0 0.0 67 180
+ 4.17328 3 2 ack 40 ------- 1 3.0 0.0 68 181
- 4.17328 3 2 ack 40 ------- 1 3.0 0.0 68 181
+ 4.19078 3 2 ack 40 ------- 1 3.0 0.0 69 182
- 4.19078 3 2 ack 40 ------- 1 3.0 0.0 69 182
+ 4.20828 3 2 ack 40 ------- 1 3.0 0.0 70 183
- 4.20828 3 2 ack 40 ------- 1 3.0 0.0 70 183
+ 4.22578 3 2 ack 40 ------- 1 3.0 0.0 71 184
- 4.22578 3 2 ack 40 ------- 1 3.0 0.0 71 184
r 4.22578 3 2 ack 40 ------- 1 3.0 0.0 65 177
+ 4.24328 3 2 ack 40 ------- 1 3.0 0.0 72 185
- 4.24328 3 2 ack 40 ------- 1 3.0 0.0 72 185
r 4.24328 3 2 ack 40 ------- 1 3.0 0.0 66 179
+ 4.26078 3 2 ack 40 ------- 1 3.0 0.0 73 186
- 4.26078 3 2 ack 40 ------- 1 3.0 0.0 73 186
r 4.26078 3 2 ack 40 ------- 1 3.0 0.0 67 180
+ 4.27828 3 2 ack 40 ------- 1 3.0 0.0 74 187
- 4.27828 3 2 ack 40 ------- 1 3.0 0.0 74 187
r 4.27828 3 2 ack 40 ------- 1 3.0 0.0 68 181
r 4.29578 3 2 ack 40 ------- 1 3.0 0.0 69 182
+ 4.31328 3 2 ack 40 ------- 2 3.1 1.0 15 188
- 4.31328 3 2 ack 40 ------- 2 3.1 1.0 15 188
r 4.31328 3 2 ack 40 ------- 1 3.0 0.0 70 183
+ 4.33078 3 2 ack 40 ------- 2 3.1 1.0 16 190
- 4.33078 3 2 ack 40 ------- 2 3.1 1.0 16 190
r 4.33078 3 2 ack 40 ------- 1 3.0 0.0 71 184
+ 4.34828 3 2 ack 40 ------- 2 3.1 1.0 17 192
- 4.34828 3 2 ack 40 ------- 2 3.1 1.0 17 192
r 4.34828 3 2 ack 40 ------- 1 3.0 0.0 72 185
+ 4.36578 3 2 ack 40 ------- 2 3.1 1.0 18 194
- 4.36578 3 2 ack 40 ------- 2 3.1 1.0 18 194
r 4.36578 3 2 ack 40 ------- 1 3.0 0.0 73 186
r 4.38328 3 2 ack 40 ------- 1 3.0 0.0 74 187
r 4.41828 3 2 ack 40 ------- 2 3.1 1.0 15 188
r 4.43578 3 2 ack 40 ------- 2 3.1 1.0 16 190
r 4.45328 3 2 ack 40 ------- 2 3.1 1.0 17 192
r 4.47078 3 2 ack 40 ------- 2 3.1 1.0 18 194
+ 4.54472 3 2 ack 40 ------- 1 3.0 0.0 75 204
- 4.54472 3 2 ack 40 ------- 1 3.0 0.0 75 204
+ 4.56222 3 2 ack 40 ------- 1 3.0 0.0 76 206
- 4.56222 3 2 ack 40 ------- 1 3.0 0.0 76 206
+ 4.57972 3 2 ack 40 ------- 1 3.0 0.0 77 209
- 4.57972 3 2 ack 40 ------- 1 3.0 0.0 77 209
+ 4.59722 3 2 ack 40 ------- 1 3.0 0.0 78 210
- 4.59722 3 2 ack 40 ------- 1 3.0 0.0 78 210
+ 4.61472 3 2 ack 40 ------- 1 3.0 0.0 79 211
- 4.61472 3 2 ack 40 ------- 1 3.0 0.0 79 211
+ 4.63222 3 2 ack 40 ------- 1 3.0 0.0 80 212
- 4.63222 3 2 ack 40 ------- 1 3.0 0.0 80 212
+ 4.64972 3 2 ack 40 ------- 1 3.0 0.0 81 213
- 4.64972 3 2 ack 40 ------- 1 3.0 0.0 81 213
r 4.64972 3 2 ack 40 ------- 1 3.0 0.0 75 204
+ 4.66722 3 2 ack 40 ------- 1 3.0 0.0 82 214
- 4.66722 3 2 ack 40 ------- 1 3.0 0.0 82 214
r 4.66722 3 2 ack 40 ------- 1 3.0 0.0 76 206
+ 4.68472 3 2 ack 40 ------- 1 3.0 0.0 83 215
- 4.68472 3 2 ack 40 ------- 1 3.0 0.0 83 215
r 4.68472 3 2 ack 40 ------- 1 3.0 0.0 77 209
+ 4.70222 3 2 ack 40 ------- 1 3.0 0.0 84 216
- 4.70222 3 2 ack 40 ------- 1 3.0 0.0 84 216
r 4.70222 3 2 ack 40 ------- 1 3.0 0.0 78 210
r 4.71972 3 2 ack 40 ------- 1 3.0 0.0 79 211
+ 4.73722 3 2 ack 40 ------- 2 3.1 1.0 19 217
- 4.73722 3 2 ack 40 ------- 2 3.1 1.0 19 217
r 4.73722 3 2 ack 40 ------- 1 3.0 0.0 80 212
+ 4.75472 3 2 ack 40 ------- 2 3.1 1.0 20 219
- 4.75472 3 2 ack 40 ------- 2 3.1 1.0 20 219
r 4.75472 3 2 ack 40 ------- 1 3.0 0.0 81 213
+ 4.77222 3 2 ack 40 ------- 2 3.1 1.0 21 221
- 4.77222 3 2 ack 40 ------- 2 3.1 1.0 21 221
r 4.77222 3 2 ack 40 ------- 1 3.0 0.0 82 214
+ 4.78972 3 2 ack 40 ------- 2 3.1 1.0 22 223
- 4.78972 3 2 ack 40 ------- 2 3.1 1.0 22 223
r 4.78972 3 2 ack 40 ------- 1 3.0 0.0 83 215
+ 4.80722 3 2 ack 40 ------- 2 3.1 1.0 23 225
- 4.80722 3 2 ack 40 ------- 2 3.1 1.0 23 225
r 4.80722 3 2 ack 40 ------- 1 3.0 0.0 84 216
r 4.84222 3 2 ack 40 ------- 2 3.1 1.0 19 217
r 4.85972 3 2 ack 40 ------- 2 3.1 1.0 20 219
r 4.87722 3 2 ack 40 ------- 2 3.1 1.0 21 221
r 4.89472 3 2 ack 40 ------- 2 3.1 1.0 22 223
r 4.91222 3 2 ack 40 ------- 2 3.1 1.0 23 225
+ 4.96866 3 2 ack 40 ------- 1 3.0 0.0 85 234
- 4.96866 3 2 ack 40 ------- 1 3.0 0.0 85 234
+ 4.98616 3 2 ack 40 ------- 1 3.0 0.0 86 236
- 4.98616 3 2 ack 40 ------- 1 3.0 0.0 86 236
+ 5.00366 3 2 ack 40 ------- 1 3.0 0.0 87 238
- 5.00366 3 2 ack 40 ------- 1 3.0 0.0 87 238
+ 5.02116 3 2 ack 40 ------- 1 3.0 0.0 88 241
- 5.02116 3 2 ack 40 ------- 1 3.0 0.0 88 241
+ 5.03866 3 2 ack 40 ------- 1 3.0 0.0 89 242
- 5.03866 3 2 ack 40 ------- 1 3.0 0.0 89 242
+ 5.05616 3 2 ack 40 ------- 1 3.0 0.0 90 243
- 5.05616 3 2 ack 40 ------- 1 3.0 0.0 90 243
+ 5.07366 3 2 ack 40 ------- 1 3.0 0.0 91 244
- 5.07366 3 2 ack 40 ------- 1 3.0 0.0 91 244
r 5.07366 3 2 ack 40 ------- 1 3.0 0.0 85 234
+ 5.09116 3 2 ack 40 ------- 1 3.0 0.0 92 245
- 5.09116 3 2 ack 40 ------- 1 3.0 0.0 92 245
r 5.09116 3 2 ack 40 ------- 1 3.0 0.0 86 236
+ 5.10866 3 2 ack 40 ------- 1 3.0 0.0 93 246
- 5.10866 3 2 ack 40 ------- 1 3.0 0.0 93 246
r 5.10866 3 2 ack 40 ------- 1 3.0 0.0 87 238
+ 5.12616 3 2 ack 40 ------- 1 3.0 0.0 94 247
- 5.12616 3 2 ack 40 ------- 1 3.0 0.0 94 247
r 5.12616 3 2 ack 40 ------- 1 3.0 0.0 88 241
r 5.14366 3 2 ack 40 ------- 1 3.0 0.0 89 242
+ 5.16116 3 2 ack 40 ------- 2 3.1 1.0 24 248
- 5.16116 3 2 ack 40 ------- 2 3.1 1.0 24 248
r 5.16116 3 2 ack 40 ------- 1 3.0 0.0 90 243
+ 5.17866 3 2 ack 40 ------- 2 3.1 1.0 25 250
- 5.17866 3 2 ack 40 ------- 2 3.1 1.0 25 250
r 5.17866 3 2 ack 40 ------- 1 3.0 0.0 91 244
+ 5.19616 3 2 ack 40 ------- 2 3.1 1.0 26 252
- 5.19616 3 2 ack 40 ------- 2 3.1 1.0 26 252
r 5.19616 3 2 ack 40 ------- 1 3.0 0.0 92 245
+ 5.21366 3 2 ack 40 ------- 2 3.1 1.0 27 254
- 5.21366 3 2 ack 40 ------- 2 3.1 1.0 27 254
r 5.21366 3 2 ack 40 ------- 1 3.0 0.0 93 246
+ 5.23116 3 2 ack 40 ------- 2 3.1 1.0 28 256
- 5.23116 3 2 ack 40 ------- 2 3.1 1.0 28 256
r 5.23116 3 2 ack 40 ------- 1 3.0 0.0 94 247
+ 5.24866 3 2 ack 40 ------- 2 3.1 1.0 29 258
- 5.24866 3 2 ack 40 ------- 2 3.1 1.0 29 258
r 5.26616 3 2 ack 40 ------- 2 3.1 1.0 24 248
r 5.28366 3 2 ack 40 ------- 2 3.1 1.0 25 250
r 5.30116 3 2 ack 40 ------- 2 3.1 1.0 26 252
r 5.31866 3 2 ack 40 ------- 2 3.1 1.0 27 254
r 5.33616 3 2 ack 40 ------- 2 3.1 1.0 28 256
r 5.35366 3 2 ack 40 ------- 2 3.1 1.0 29 258
+ 5.3926 3 2 ack 40 ------- 1 3.0 0.0 95 266
- 5.3926 3 2 ack 40 ------- 1 3.0 0.0 95 266
+ 5.4101 3 2 ack 40 ------- 1 3.0 0.0 96 268
- 5.4101 3 2 ack 40 ------- 1 3.0 0.0 96 268
+ 5.4276 3 2 ack 40 ------- 1 3.0 0.0 97 270
- 5.4276 3 2 ack 40 ------- 1 3.0 0.0 97 270
+ 5.4451 3 2 ack 40 ------- 1 3.0 0.0 98 272
- 5.4451 3 2 ack 40 ------- 1 3.0 0.0 98 272
+ 5.4626 3 2 ack 40 ------- 1 3.0 0.0 99 275
- 5.4626 3 2 ack 40 ------- 1 3.0 0.0 99 275
+ 5.4801 3 2 ack 40 ------- 1 3.0 0.0 100 276
- 5.4801 3 2 ack 40 ------- 1 3.0 0.0 100 276
+ 5.4976 3 2 ack 40 ------- 1 3.0 0.0 101 277
- 5.4976 3 2 ack 40 ------- 1 3.0 0.0 101 277
r 5.4976 3 2 ack 40 ------- 1 3.0 0.0 95 266
+ 5.5151 3 2 ack 40 ------- 1 3.0 0.0 102 278
- 5.5151 3 2 ack 40 ------- 1 3.0 0.0 102 278
r 5.5151 3 2 ack 40 ------- 1 3.0 0.0 96 268
+ 5.5326 3 2 ack 40 ------- 1 3.0 0.0 103 279
- 5.5326 3 2 ack 40 ------- 1 3.0 0.0 103 279
r 5.5326 3 2 ack 40 ------- 1 3.0 0.0 97 270
+ 5.5501 3 2 ack 40 ------- 1 3.0 0.0 104 280
- 5.5501 3 2 ack 40 ------- 1 3.0 0.0 104 280
r 5.5501 3 2 ack 40 ------- 1 3.0 0.0 98 272
r 5.5676 3 2 ack 40 ------- 1 3.0 0.0 99 275
+ 5.5851 3 2 ack 40 ------- 2 3.1 1.0 30 281
- 5.5851 3 2 ack 40 ------- 2 3.1 1.0 30 281
r 5.5851 3 2 ack 40 ------- 1 3.0 0.0 100 276
+ 5.6026 3 2 ack 40 ------- 2 3.1 1.0 31 283
- 5.6026 3 2 ack 40 ------- 2 3.1 1.0 31 283
r 5.6026 3 2 ack 40 ------- 1 3.0 0.0 101 277
+ 5.6201 3 2 ack 40 ------- 2 3.1 1.0 32 285
- 5.6201 3 2 ack 40 ------- 2 3.1 1.0 32 285
r 5.6201 3 2 ack 40 ------- 1 3.0 0.0 102 278
+ 5.6376 3 2 ack 40 ------- 2 3.1 1.0 33 287
- 5.6376 3 2 ack 40 ------- 2 3.1 1.0 33 287
r 5.6376 3 2 ack 40 ------- 1 3.0 0.0 103 279
+ 5.6551 3 2 ack 40 ------- 2 3.1 1.0 34 289
- 5.6551 3 2 ack 40 ------- 2 3.1 1.0 34 289
r 5.6551 3 2 ack 40 ------- 1 3.0 0.0 104 280
+ 5.6726 3 2 ack 40 ------- 2 3.1 1.0 35 291
- 5.6726 3 2 ack 40 ------- 2 3.1 1.0 35 291
+ 5.6901 3 2 ack 40 ------- 2 3.1 1.0 36 293
- 5.6901 3 2 ack 40 ------- 2 3.1 1.0 36 293
r 5.6901 3 2 ack 40 ------- 2 3.1 1.0 30 281
r 5.7076 3 2 ack 40 ------- 2 3.1 1.0 31 283
r 5.7251 3 2 ack 40 ------- 2 3.1 1.0 32 285
r 5.7426 3 2 ack 40 ------- 2 3.1 1.0 33 287
r 5.7601 3 2 ack 40 ------- 2 3.1 1.0 34 289
r 5.7776 3 2 ack 40 ------- 2 3.1 1.0 35 291
r 5.7951 3 2 ack 40 ------- 2 3.1 1.0 36 293
+ 5.81654 3 2 ack 40 ------- 1 3.0 0.0 105 300
- 5.81654 3 2 ack 40 ------- 1 3.0 0.0 105 300
+ 5.83404 3 2 ack 40 ------- 1 3.0 0.0 106 302
- 5.83404 3 2 ack 40 ------- 1 3.0 0.0 106 302
+ 5.85154 3 2 ack 40 ------- 1 3.0 0.0 107 304
- 5.85154 3 2 ack 40 ------- 1 3.0 0.0 107 304
+ 5.86904 3 2 ack 40 ------- 1 3.0 0.0 108 306
- 5.86904 3 2 ack 40 ------- 1 3.0 0.0 108 306
+ 5.88654 3 2 ack 40 ------- 1 3.0 0.0 109 308
- 5.88654 3 2 ack 40 ------- 1 3.0 0.0 109 308
+ 5.90404 3 2 ack 40 ------- 1 3.0 0.0 110 310
- 5.90404 3 2 ack 40 ------- 1 3.0 0.0 110 310
+ 5.92154 3 2 ack 40 ------- 1 3.0 0.0 111 311
- 5.92154 3 2 ack 40 ------- 1 3.0 0.0 111 311
r 5.92154 3 2 ack 40 ------- 1 3.0 0.0 105 300
+ 5.93904 3 2 ack 40 ------- 1 3.0 0.0 112 312
- 5.93904 3 2 ack 40 ------- 1 3.0 0.0 112 312
r 5.93904 3 2 ack 40 ------- 1 3.0 0.0 106 302
+ 5.95654 3 2 ack 40 ------- 1 3.0 0.0 113 313
- 5.95654 3 2 ack 40 ------- 1 3.0 0.0 113 313
r 5.95654 3 2 ack 40 ------- 1 3.0 0.0 107 304
+ 5.97404 3 2 ack 40 ------- 1 3.0 0.0 114 314
- 5.97404 3 2 ack 40 ------- 1 3.0 0.0 114 314
r 5.97404 3 2 ack 40 ------- 1 3.0 0.0 108 306
r 5.99154 3 2 ack 40 ------- 1 3.0 0.0 109 308
