+ 0.37237 4 3 ack 40 ------- 1 9.0 0.0 0 1
- 0.37237 4 3 ack 40 ------- 1 9.0 0.0 0 1
r 0.57362 4 3 ack 40 ------- 1 9.0 0.0 0 1
+ 0.860875 4 3 ack 40 ------- 1 9.0 0.0 1 4
- 0.860875 4 3 ack 40 ------- 1 9.0 0.0 1 4
+ 0.86525 4 3 ack 40 ------- 1 9.0 0.0 2 5
- 0.86525 4 3 ack 40 ------- 1 9.0 0.0 2 5
r 1.062125 4 3 ack 40 ------- 1 9.0 0.0 1 4
r 1.0665 4 3 ack 40 ------- 1 9.0 0.0 2 5
+ 1.34938 4 3 ack 40 ------- 1 9.0 0.0 3 10
- 1.34938 4 3 ack 40 ------- 1 9.0 0.0 3 10
+ 1.353755 4 3 ack 40 ------- 1 9.0 0.0 4 11
- 1.353755 4 3 ack 40 ------- 1 9.0 0.0 4 11
+ 1.35813 4 3 ack 40 ------- 1 9.0 0.0 5 12
- 1.35813 4 3 ack 40 ------- 1 9.0 0.0 5 12
+ 1.362505 4 3 ack 40 ------- 1 9.0 0.0 6 13
- 1.362505 4 3 ack 40 ------- 1 9.0 0.0 6 13
r 1.55063 4 3 ack 40 ------- 1 9.0 0.0 3 10
r 1.555005 4 3 ack 40 ------- 1 9.0 0.0 4 11
r 1.55938 4 3 ack 40 ------- 1 9.0 0.0 5 12
r 1.563755 4 3 ack 40 ------- 1 9.0 0.0 6 13
+ 1.837885 4 3 ack 40 ------- 1 9.0 0.0 7 22
- 1.837885 4 3 ack 40 ------- 1 9.0 0.0 7 22
+ 1.84226 4 3 ack 40 ------- 1 9.0 0.0 8 23
- 1.84226 4 3 ack 40 ------- 1 9.0 0.0 8 23
+ 1.846635 4 3 ack 40 ------- 1 9.0 0.0 9 24
- 1.846635 4 3 ack 40 ------- 1 9.0 0.0 9 24
+ 1.85101 4 3 ack 40 ------- 1 9.0 0.0 10 25
- 1.85101 4 3 ack 40 ------- 1 9.0 0.0 10 25
+ 1.855385 4 3 ack 40 ------- 1 9.0 0.0 11 26
- 1.855385 4 3 ack 40 ------- 1 9.0 0.0 11 26
+ 1.85976 4 3 ack 40 ------- 1 9.0 0.0 12 27
- 1.85976 4 3 ack 40 ------- 1 9.0 0.0 12 27
+ 1.864135 4 3 ack 40 ------- 1 9.0 0.0 13 28
- 1.864135 4 3 ack 40 ------- 1 9.0 0.0 13 28
+ 1.86851 4 3 ack 40 ------- 1 9.0 0.0 14 29
- 1.86851 4 3 ack 40 ------- 1 9.0 0.0 14 29
r 2.039135 4 3 ack 40 ------- 1 9.0 0.0 7 22
r 2.04351 4 3 ack 40 ------- 1 9.0 0.0 8 23
r 2.047885 4 3 ack 40 ------- 1 9.0 0.0 9 24
r 2.05226 4 3 ack 40 ------- 1 9.0 0.0 10 25
r 2.056635 4 3 ack 40 ------- 1 9.0 0.0 11 26
r 2.06101 4 3 ack 40 ------- 1 9.0 0.0 12 27
r 2.065385 4 3 ack 40 ------- 1 9.0 0.0 13 28
r 2.06976 4 3 ack 40 ------- 1 9.0 0.0 14 29
+ 2.32639 4 3 ack 40 ------- 1 9.0 0.0 15 45
- 2.32639 4 3 ack 40 ------- 1 9.0 0.0 15 45
+ 2.330765 4 3 ack 40 ------- 1 9.0 0.0 16 46
- 2.330765 4 3 ack 40 ------- 1 9.0 0.0 16 46
+ 2.33514 4 3 ack 40 ------- 1 9.0 0.0 17 47
- 2.33514 4 3 ack 40 ------- 1 9.0 0.0 17 47
+ 2.339515 4 3 ack 40 ------- 1 9.0 0.0 18 48
- 2.339515 4 3 ack 40 ------- 1 9.0 0.0 18 48
+ 2.34389 4 3 ack 40 ------- 1 9.0 0.0 19 49
- 2.34389 4 3 ack 40 ------- 1 9.0 0.0 19 49
+ 2.348265 4 3 ack 40 ------- 1 9.0 0.0 20 50
- 2.348265 4 3 ack 40 ------- 1 9.0 0.0 20 50
+ 2.35264 4 3 ack 40 ------- 1 9.0 0.0 21 51
- 2.35264 4 3 ack 40 ------- 1 9.0 0.0 21 51
+ 2.357015 4 3 ack 40 ------- 1 9.0 0.0 22 52
- 2.357015 4 3 ack 40 ------- 1 9.0 0.0 22 52
+ 2.36139 4 3 ack 40 ------- 1 9.0 0.0 23 53
- 2.36139 4 3 ack 40 ------- 1 9.0 0.0 23 53
+ 2.365765 4 3 ack 40 ------- 1 9.0 0.0 24 54
- 2.365765 4 3 ack 40 ------- 1 9.0 0.0 24 54
+ 2.37014 4 3 ack 40 ------- 1 9.0 0.0 25 55
- 2.37014 4 3 ack 40 ------- 1 9.0 0.0 25 55
+ 2.374515 4 3 ack 40 ------- 1 9.0 0.0 26 56
- 2.374515 4 3 ack 40 ------- 1 9.0 0.0 26 56
+ 2.37889 4 3 ack 40 ------- 1 9.0 0.0 27 57
- 2.37889 4 3 ack 40 ------- 1 9.0 0.0 27 57
+ 2.383265 4 3 ack 40 ------- 1 9.0 0.0 28 58
- 2.383265 4 3 ack 40 ------- 1 9.0 0.0 28 58
r 2.52764 4 3 ack 40 ------- 1 9.0 0.0 15 45
r 2.532015 4 3 ack 40 ------- 1 9.0 0.0 16 46
r 2.53639 4 3 ack 40 ------- 1 9.0 0.0 17 47
r 2.540765 4 3 ack 40 ------- 1 9.0 0.0 18 48
r 2.54514 4 3 ack 40 ------- 1 9.0 0.0 19 49
r 2.549515 4 3 ack 40 ------- 1 9.0 0.0 20 50
r 2.55389 4 3 ack 40 ------- 1 9.0 0.0 21 51
r 2.558265 4 3 ack 40 ------- 1 9.0 0.0 22 52
r 2.56264 4 3 ack 40 ------- 1 9.0 0.0 23 53
r 2.567015 4 3 ack 40 ------- 1 9.0 0.0 24 54
r 2.57139 4 3 ack 40 ------- 1 9.0 0.0 25 55
r 2.575765 4 3 ack 40 ------- 1 9.0 0.0 26 56
r 2.58014 4 3 ack 40 ------- 1 9.0 0.0 27 57
r 2.584515 4 3 ack 40 ------- 1 9.0 0.0 28 58
+ 2.814895 4 3 ack 40 ------- 1 9.0 0.0 28 73
- 2.814895 4 3 ack 40 ------- 1 9.0 0.0 28 73
+ 2.81927 4 3 ack 40 ------- 1 9.0 0.0 28 74
- 2.81927 4 3 ack 40 ------- 1 9.0 0.0 28 74
+ 2.823645 4 3 ack 40 ------- 1 9.0 0.0 28 75
- 2.823645 4 3 ack 40 ------- 1 9.0 0.0 28 75
+ 2.82802 4 3 ack 40 ------- 1 9.0 0.0 28 76
- 2.82802 4 3 ack 40 ------- 1 9.0 0.0 28 76
+ 2.832395 4 3 ack 40 ------- 1 9.0 0.0 28 77
- 2.832395 4 3 ack 40 ------- 1 9.0 0.0 28 77
+ 2.83677 4 3 ack 40 ------- 1 9.0 0.0 28 78
- 2.83677 4 3 ack 40 ------- 1 9.0 0.0 28 78
+ 2.841145 4 3 ack 40 ------- 1 9.0 0.0 28 79
- 2.841145 4 3 ack 40 ------- 1 9.0 0.0 28 79
+ 2.84552 4 3 ack 40 ------- 1 9.0 0.0 28 80
- 2.84552 4 3 ack 40 ------- 1 9.0 0.0 28 80
+ 2.849895 4 3 ack 40 ------- 1 9.0 0.0 28 81
- 2.849895 4 3 ack 40 ------- 1 9.0 0.0 28 81
+ 2.85427 4 3 ack 40 ------- 1 9.0 0.0 28 82
- 2.85427 4 3 ack 40 ------- 1 9.0 0.0 28 82
+ 2.858645 4 3 ack 40 ------- 1 9.0 0.0 28 83
- 2.858645 4 3 ack 40 ------- 1 9.0 0.0 28 83
+ 2.86302 4 3 ack 40 ------- 1 9.0 0.0 28 84
- 2.86302 4 3 ack 40 ------- 1 9.0 0.0 28 84
+ 2.867395 4 3 ack 40 ------- 1 9.0 0.0 28 85
- 2.867395 4 3 ack 40 ------- 1 9.0 0.0 28 85
+ 2.87177 4 3 ack 40 ------- 1 9.0 0.0 28 86
- 2.87177 4 3 ack 40 ------- 1 9.0 0.0 28 86
r 3.016145 4 3 ack 40 ------- 1 9.0 0.0 28 73
r 3.02052 4 3 ack 40 ------- 1 9.0 0.0 28 74
r 3.024895 4 3 ack 40 ------- 1 9.0 0.0 28 75
r 3.02927 4 3 ack 40 ------- 1 9.0 0.0 28 76
r 3.033645 4 3 ack 40 ------- 1 9.0 0.0 28 77
r 3.03802 4 3 ack 40 ------- 1 9.0 0.0 28 78
r 3.042395 4 3 ack 40 ------- 1 9.0 0.0 28 79
r 3.04677 4 3 ack 40 ------- 1 9.0 0.0 28 80
r 3.051145 4 3 ack 40 ------- 1 9.0 0.0 28 81
r 3.05552 4 3 ack 40 ------- 1 9.0 0.0 28 82
r 3.059895 4 3 ack 40 ------- 1 9.0 0.0 28 83
r 3.06427 4 3 ack 40 ------- 1 9.0 0.0 28 84
r 3.068645 4 3 ack 40 ------- 1 9.0 0.0 28 85
r 3.07302 4 3 ack 40 ------- 1 9.0 0.0 28 86
+ 3.3034 4 3 ack 40 ------- 1 9.0 0.0 28 90
- 3.3034 4 3 ack 40 ------- 1 9.0 0.0 28 90
+ 3.307775 4 3 ack 40 ------- 1 9.0 0.0 28 91
- 3.307775 4 3 ack 40 ------- 1 9.0 0.0 28 91
+ 3.31215 4 3 ack 40 ------- 1 9.0 0.0 45 92
- 3.31215 4 3 ack 40 ------- 1 9.0 0.0 45 92
r 3.50465 4 3 ack 40 ------- 1 9.0 0.0 28 90
r 3.509025 4 3 ack 40 ------- 1 9.0 0.0 28 91
r 3.5134 4 3 ack 40 ------- 1 9.0 0.0 45 92
+ 3.800655 4 3 ack 40 ------- 1 9.0 0.0 46 95
- 3.800655 4 3 ack 40 ------- 1 9.0 0.0 46 95
+ 3.80503 4 3 ack 40 ------- 1 9.0 0.0 47 96
- 3.80503 4 3 ack 40 ------- 1 9.0 0.0 47 96
r 4.001905 4 3 ack 40 ------- 1 9.0 0.0 46 95
r 4.00628 4 3 ack 40 ------- 1 9.0 0.0 47 96
+ 4.28916 4 3 ack 40 ------- 1 9.0 0.0 48 101
- 4.28916 4 3 ack 40 ------- 1 9.0 0.0 48 101
+ 4.293535 4 3 ack 40 ------- 1 9.0 0.0 49 102
- 4.293535 4 3 ack 40 ------- 1 9.0 0.0 49 102
+ 4.29791 4 3 ack 40 ------- 1 9.0 0.0 50 103
- 4.29791 4 3 ack 40 ------- 1 9.0 0.0 50 103
+ 4.302285 4 3 ack 40 ------- 1 9.0 0.0 51 104
- 4.302285 4 3 ack 40 ------- 1 9.0 0.0 51 104
r 4.49041 4 3 ack 40 ------- 1 9.0 0.0 48 101
r 4.494785 4 3 ack 40 ------- 1 9.0 0.0 49 102
r 4.49916 4 3 ack 40 ------- 1 9.0 0.0 50 103
r 4.503535 4 3 ack 40 ------- 1 9.0 0.0 51 104
+ 4.777665 4 3 ack 40 ------- 1 9.0 0.0 52 112
- 4.777665 4 3 ack 40 ------- 1 9.0 0.0 52 112
+ 4.78204 4 3 ack 40 ------- 1 9.0 0.0 53 113
- 4.78204 4 3 ack 40 ------- 1 9.0 0.0 53 113
+ 4.786415 4 3 ack 40 ------- 1 9.0 0.0 54 114
- 4.786415 4 3 ack 40 ------- 1 9.0 0.0 54 114
+ 4.79079 4 3 ack 40 ------- 1 9.0 0.0 55 115
- 4.79079 4 3 ack 40 ------- 1 9.0 0.0 55 115
+ 4.795165 4 3 ack 40 ------- 1 9.0 0.0 56 116
- 4.795165 4 3 ack 40 ------- 1 9.0 0.0 56 116
+ 4.79954 4 3 ack 40 ------- 1 9.0 0.0 57 117
- 4.79954 4 3 ack 40 ------- 1 9.0 0.0 57 117
+ 4.803915 4 3 ack 40 ------- 1 9.0 0.0 58 118
- 4.803915 4 3 ack 40 ------- 1 9.0 0.0 58 118
r 4.978915 4 3 ack 40 ------- 1 9.0 0.0 52 112
r 4.98329 4 3 ack 40 ------- 1 9.0 0.0 53 113
r 4.987665 4 3 ack 40 ------- 1 9.0 0.0 54 114
r 4.99204 4 3 ack 40 ------- 1 9.0 0.0 55 115
r 4.996415 4 3 ack 40 ------- 1 9.0 0.0 56 116
r 5.00079 4 3 ack 40 ------- 1 9.0 0.0 57 117
r 5.005165 4 3 ack 40 ------- 1 9.0 0.0 58 118
+ 5.26617 4 3 ack 40 ------- 1 9.0 0.0 59 127
- 5.26617 4 3 ack 40 ------- 1 9.0 0.0 59 127
+ 5.270545 4 3 ack 40 ------- 1 9.0 0.0 60 128
- 5.270545 4 3 ack 40 ------- 1 9.0 0.0 60 128
+ 5.27492 4 3 ack 40 ------- 1 9.0 0.0 61 129
- 5.27492 4 3 ack 40 ------- 1 9.0 0.0 61 129
+ 5.279295 4 3 ack 40 ------- 1 9.0 0.0 62 130
- 5.279295 4 3 ack 40 ------- 1 9.0 0.0 62 130
+ 5.28367 4 3 ack 40 ------- 1 9.0 0.0 63 131
- 5.28367 4 3 ack 40 ------- 1 9.0 0.0 63 131
+ 5.288045 4 3 ack 40 ------- 1 9.0 0.0 64 132
- 5.288045 4 3 ack 40 ------- 1 9.0 0.0 64 132
+ 5.29242 4 3 ack 40 ------- 1 9.0 0.0 65 133
- 5.29242 4 3 ack 40 ------- 1 9.0 0.0 65 133
+ 5.296795 4 3 ack 40 ------- 1 9.0 0.0 66 134
- 5.296795 4 3 ack 40 ------- 1 9.0 0.0 66 134
r 5.46742 4 3 ack 40 ------- 1 9.0 0.0 59 127
r 5.471795 4 3 ack 40 ------- 1 9.0 0.0 60 128
r 5.47617 4 3 ack 40 ------- 1 9.0 0.0 61 129
r 5.480545 4 3 ack 40 ------- 1 9.0 0.0 62 130
r 5.48492 4 3 ack 40 ------- 1 9.0 0.0 63 131
r 5.489295 4 3 ack 40 ------- 1 9.0 0.0 64 132
r 5.49367 4 3 ack 40 ------- 1 9.0 0.0 65 133
r 5.498045 4 3 ack 40 ------- 1 9.0 0.0 66 134
+ 5.754675 4 3 ack 40 ------- 1 9.0 0.0 67 144
- 5.754675 4 3 ack 40 ------- 1 9.0 0.0 67 144
+ 5.75905 4 3 ack 40 ------- 1 9.0 0.0 68 145
- 5.75905 4 3 ack 40 ------- 1 9.0 0.0 68 145
+ 5.763425 4 3 ack 40 ------- 1 9.0 0.0 69 146
- 5.763425 4 3 ack 40 ------- 1 9.0 0.0 69 146
+ 5.7678 4 3 ack 40 ------- 1 9.0 0.0 70 147
- 5.7678 4 3 ack 40 ------- 1 9.0 0.0 70 147
+ 5.772175 4 3 ack 40 ------- 1 9.0 0.0 71 148
- 5.772175 4 3 ack 40 ------- 1 9.0 0.0 71 148
+ 5.77655 4 3 ack 40 ------- 1 9.0 0.0 72 149
- 5.77655 4 3 ack 40 ------- 1 9.0 0.0 72 149
+ 5.780925 4 3 ack 40 ------- 1 9.0 0.0 73 150
- 5.780925 4 3 ack 40 ------- 1 9.0 0.0 73 150
+ 5.7853 4 3 ack 40 ------- 1 9.0 0.0 74 151
- 5.7853 4 3 ack 40 ------- 1 9.0 0.0 74 151
+ 5.789675 4 3 ack 40 ------- 1 9.0 0.0 75 152
- 5.789675 4 3 ack 40 ------- 1 9.0 0.0 75 152
r 5.955925 4 3 ack 40 ------- 1 9.0 0.0 67 144
r 5.9603 4 3 ack 40 ------- 1 9.0 0.0 68 145
r 5.964675 4 3 ack 40 ------- 1 9.0 0.0 69 146
r 5.96905 4 3 ack 40 ------- 1 9.0 0.0 70 147
r 5.973425 4 3 ack 40 ------- 1 9.0 0.0 71 148
r 5.9778 4 3 ack 40 ------- 1 9.0 0.0 72 149
r 5.982175 4 3 ack 40 ------- 1 9.0 0.0 73 150
r 5.98655 4 3 ack 40 ------- 1 9.0 0.0 74 151
r 5.990925 4 3 ack 40 ------- 1 9.0 0.0 75 152
