+ 0.37237 4 3 ack 40 ------- 1 9.0 0.0 0 1
- 0.37237 4 3 ack 40 ------- 1 9.0 0.0 0 1
r 0.57362 4 3 ack 40 ------- 1 9.0 0.0 0 1
+ 0.860875 4 3 ack 40 ------- 1 9.0 0.0 1 4
- 0.860875 4 3 ack 40 ------- 1 9.0 0.0 1 4
+ 0.86525 4 3 ack 40 ------- 1 9.0 0.0 2 5
- 0.86525 4 3 ack 40 ------- 1 9.0 0.0 2 5
r 1.062125 4 3 ack 40 ------- 1 9.0 0.0 1 4
r 1.0665 4 3 ack 40 ------- 1 9.0 0.0 2 5
+ 1.34938 4 3 ack 40 ------- 1 9.0 0.0 3 10
- 1.34938 4 3 ack 40 ------- 1 9.0 0.0 3 10
+ 1.353755 4 3 ack 40 ------- 1 9.0 0.0 4 11
- 1.353755 4 3 ack 40 ------- 1 9.0 0.0 4 11
+ 1.35813 4 3 ack 40 ------- 1 9.0 0.0 5 12
- 1.35813 4 3 ack 40 ------- 1 9.0 0.0 5 12
+ 1.362505 4 3 ack 40 ------- 1 9.0 0.0 6 13
- 1.362505 4 3 ack 40 ------- 1 9.0 0.0 6 13
r 1.55063 4 3 ack 40 ------- 1 9.0 0.0 3 10
r 1.555005 4 3 ack 40 ------- 1 9.0 0.0 4 11
r 1.55938 4 3 ack 40 ------- 1 9.0 0.0 5 12
r 1.563755 4 3 ack 40 ------- 1 9.0 0.0 6 13
+ 1.837885 4 3 ack 40 ------- 1 9.0 0.0 7 22
- 1.837885 4 3 ack 40 ------- 1 9.0 0.0 7 22
+ 1.84226 4 3 ack 40 ------- 1 9.0 0.0 8 23
- 1.84226 4 3 ack 40 ------- 1 9.0 0.0 8 23
+ 1.846635 4 3 ack 40 ------- 1 9.0 0.0 9 24
- 1.846635 4 3 ack 40 ------- 1 9.0 0.0 9 24
+ 1.85101 4 3 ack 40 ------- 1 9.0 0.0 10 25
- 1.85101 4 3 ack 40 ------- 1 9.0 0.0 10 25
+ 1.855385 4 3 ack 40 ------- 1 9.0 0.0 11 26
- 1.855385 4 3 ack 40 ------- 1 9.0 0.0 11 26
+ 1.85976 4 3 ack 40 ------- 1 9.0 0.0 12 27
- 1.85976 4 3 ack 40 ------- 1 9.0 0.0 12 27
+ 1.864135 4 3 ack 40 ------- 1 9.0 0.0 13 28
- 1.864135 4 3 ack 40 ------- 1 9.0 0.0 13 28
+ 1.86851 4 3 ack 40 ------- 1 9.0 0.0 14 29
- 1.86851 4 3 ack 40 ------- 1 9.0 0.0 14 29
r 2.039135 4 3 ack 40 ------- 1 9.0 0.0 7 22
r 2.04351 4 3 ack 40 ------- 1 9.0 0.0 8 23
r 2.047885 4 3 ack 40 ------- 1 9.0 0.0 9 24
r 2.05226 4 3 ack 40 ------- 1 9.0 0.0 10 25
r 2.056635 4 3 ack 40 ------- 1 9.0 0.0 11 26
r 2.06101 4 3 ack 40 ------- 1 9.0 0.0 12 27
r 2.065385 4 3 ack 40 ------- 1 9.0 0.0 13 28
r 2.06976 4 3 ack 40 ------- 1 9.0 0.0 14 29
+ 2.32639 4 3 ack 40 ------- 1 9.0 0.0 15 45
- 2.32639 4 3 ack 40 ------- 1 9.0 0.0 15 45
+ 2.330765 4 3 ack 40 ------- 1 9.0 0.0 16 46
- 2.330765 4 3 ack 40 ------- 1 9.0 0.0 16 46
+ 2.33514 4 3 ack 40 ------- 1 9.0 0.0 17 47
- 2.33514 4 3 ack 40 ------- 1 9.0 0.0 17 47
+ 2.339515 4 3 ack 40 ------- 1 9.0 0.0 18 48
- 2.339515 4 3 ack 40 ------- 1 9.0 0.0 18 48
+ 2.34389 4 3 ack 40 ------- 1 9.0 0.0 19 49
- 2.34389 4 3 ack 40 ------- 1 9.0 0.0 19 49
+ 2.348265 4 3 ack 40 ------- 1 9.0 0.0 20 50
- 2.348265 4 3 ack 40 ------- 1 9.0 0.0 20 50
+ 2.35264 4 3 ack 40 ------- 1 9.0 0.0 21 51
- 2.35264 4 3 ack 40 ------- 1 9.0 0.0 21 51
+ 2.357015 4 3 ack 40 ------- 1 9.0 0.0 22 52
- 2.357015 4 3 ack 40 ------- 1 9.0 0.0 22 52
+ 2.36139 4 3 ack 40 ------- 1 9.0 0.0 23 53
- 2.36139 4 3 ack 40 ------- 1 9.0 0.0 23 53
+ 2.365765 4 3 ack 40 ------- 1 9.0 0.0 24 54
- 2.365765 4 3 ack 40 ------- 1 9.0 0.0 24 54
+ 2.37014 4 3 ack 40 ------- 1 9.0 0.0 24 55
- 2.37014 4 3 ack 40 ------- 1 9.0 0.0 24 55
+ 2.374515 4 3 ack 40 ------- 1 9.0 0.0 24 56
- 2.374515 4 3 ack 40 ------- 1 9.0 0.0 24 56
r 2.52764 4 3 ack 40 ------- 1 9.0 0.0 15 45
r 2.532015 4 3 ack 40 ------- 1 9.0 0.0 16 46
r 2.53639 4 3 ack 40 ------- 1 9.0 0.0 17 47
r 2.540765 4 3 ack 40 ------- 1 9.0 0.0 18 48
r 2.54514 4 3 ack 40 ------- 1 9.0 0.0 19 49
r 2.549515 4 3 ack 40 ------- 1 9.0 0.0 20 50
r 2.55389 4 3 ack 40 ------- 1 9.0 0.0 21 51
r 2.558265 4 3 ack 40 ------- 1 9.0 0.0 22 52
r 2.56264 4 3 ack 40 ------- 1 9.0 0.0 23 53
r 2.567015 4 3 ack 40 ------- 1 9.0 0.0 24 54
r 2.57139 4 3 ack 40 ------- 1 9.0 0.0 24 55
r 2.575765 4 3 ack 40 ------- 1 9.0 0.0 24 56
+ 2.814895 4 3 ack 40 ------- 1 9.0 0.0 24 69
- 2.814895 4 3 ack 40 ------- 1 9.0 0.0 24 69
+ 2.81927 4 3 ack 40 ------- 1 9.0 0.0 24 70
- 2.81927 4 3 ack 40 ------- 1 9.0 0.0 24 70
+ 2.823645 4 3 ack 40 ------- 1 9.0 0.0 24 71
- 2.823645 4 3 ack 40 ------- 1 9.0 0.0 24 71
+ 2.82802 4 3 ack 40 ------- 1 9.0 0.0 24 72
- 2.82802 4 3 ack 40 ------- 1 9.0 0.0 24 72
+ 2.832395 4 3 ack 40 ------- 1 9.0 0.0 24 73
- 2.832395 4 3 ack 40 ------- 1 9.0 0.0 24 73
+ 2.83677 4 3 ack 40 ------- 1 9.0 0.0 24 74
- 2.83677 4 3 ack 40 ------- 1 9.0 0.0 24 74
+ 2.841145 4 3 ack 40 ------- 1 9.0 0.0 24 75
- 2.841145 4 3 ack 40 ------- 1 9.0 0.0 24 75
+ 2.84552 4 3 ack 40 ------- 1 9.0 0.0 24 76
- 2.84552 4 3 ack 40 ------- 1 9.0 0.0 24 76
+ 2.849895 4 3 ack 40 ------- 1 9.0 0.0 24 77
- 2.849895 4 3 ack 40 ------- 1 9.0 0.0 24 77
+ 2.85427 4 3 ack 40 ------- 1 9.0 0.0 24 78
- 2.85427 4 3 ack 40 ------- 1 9.0 0.0 24 78
+ 2.858645 4 3 ack 40 ------- 1 9.0 0.0 24 79
- 2.858645 4 3 ack 40 ------- 1 9.0 0.0 24 79
+ 2.86302 4 3 ack 40 ------- 1 9.0 0.0 24 80
- 2.86302 4 3 ack 40 ------- 1 9.0 0.0 24 80
r 3.016145 4 3 ack 40 ------- 1 9.0 0.0 24 69
r 3.02052 4 3 ack 40 ------- 1 9.0 0.0 24 70
r 3.024895 4 3 ack 40 ------- 1 9.0 0.0 24 71
r 3.02927 4 3 ack 40 ------- 1 9.0 0.0 24 72
r 3.033645 4 3 ack 40 ------- 1 9.0 0.0 24 73
r 3.03802 4 3 ack 40 ------- 1 9.0 0.0 24 74
r 3.042395 4 3 ack 40 ------- 1 9.0 0.0 24 75
r 3.04677 4 3 ack 40 ------- 1 9.0 0.0 24 76
r 3.051145 4 3 ack 40 ------- 1 9.0 0.0 24 77
r 3.05552 4 3 ack 40 ------- 1 9.0 0.0 24 78
r 3.059895 4 3 ack 40 ------- 1 9.0 0.0 24 79
r 3.06427 4 3 ack 40 ------- 1 9.0 0.0 24 80
+ 3.3034 4 3 ack 40 ------- 1 9.0 0.0 26 82
- 3.3034 4 3 ack 40 ------- 1 9.0 0.0 26 82
r 3.50465 4 3 ack 40 ------- 1 9.0 0.0 26 82
+ 3.791905 4 3 ack 40 ------- 1 9.0 0.0 28 85
- 3.791905 4 3 ack 40 ------- 1 9.0 0.0 28 85
+ 3.79628 4 3 ack 40 ------- 1 9.0 0.0 28 86
- 3.79628 4 3 ack 40 ------- 1 9.0 0.0 28 86
r 3.993155 4 3 ack 40 ------- 1 9.0 0.0 28 85
r 3.99753 4 3 ack 40 ------- 1 9.0 0.0 28 86
+ 4.28041 4 3 ack 40 ------- 1 9.0 0.0 41 91
- 4.28041 4 3 ack 40 ------- 1 9.0 0.0 41 91
+ 4.284785 4 3 ack 40 ------- 1 9.0 0.0 41 92
- 4.284785 4 3 ack 40 ------- 1 9.0 0.0 41 92
+ 4.28916 4 3 ack 40 ------- 1 9.0 0.0 41 93
- 4.28916 4 3 ack 40 ------- 1 9.0 0.0 41 93
+ 4.293535 4 3 ack 40 ------- 1 9.0 0.0 41 94
- 4.293535 4 3 ack 40 ------- 1 9.0 0.0 41 94
r 4.48166 4 3 ack 40 ------- 1 9.0 0.0 41 91
r 4.486035 4 3 ack 40 ------- 1 9.0 0.0 41 92
r 4.49041 4 3 ack 40 ------- 1 9.0 0.0 41 93
r 4.494785 4 3 ack 40 ------- 1 9.0 0.0 41 94
+ 4.768915 4 3 ack 40 ------- 1 9.0 0.0 42 101
- 4.768915 4 3 ack 40 ------- 1 9.0 0.0 42 101
+ 4.77329 4 3 ack 40 ------- 1 9.0 0.0 43 102
- 4.77329 4 3 ack 40 ------- 1 9.0 0.0 43 102
+ 4.777665 4 3 ack 40 ------- 1 9.0 0.0 44 103
- 4.777665 4 3 ack 40 ------- 1 9.0 0.0 44 103
+ 4.78204 4 3 ack 40 ------- 1 9.0 0.0 45 104
- 4.78204 4 3 ack 40 ------- 1 9.0 0.0 45 104
+ 4.786415 4 3 ack 40 ------- 1 9.0 0.0 46 105
- 4.786415 4 3 ack 40 ------- 1 9.0 0.0 46 105
+ 4.79079 4 3 ack 40 ------- 1 9.0 0.0 47 106
- 4.79079 4 3 ack 40 ------- 1 9.0 0.0 47 106
r 4.970165 4 3 ack 40 ------- 1 9.0 0.0 42 101
r 4.97454 4 3 ack 40 ------- 1 9.0 0.0 43 102
r 4.978915 4 3 ack 40 ------- 1 9.0 0.0 44 103
r 4.98329 4 3 ack 40 ------- 1 9.0 0.0 45 104
r 4.987665 4 3 ack 40 ------- 1 9.0 0.0 46 105
r 4.99204 4 3 ack 40 ------- 1 9.0 0.0 47 106
+ 5.261795 4 3 ack 40 ------- 1 9.0 0.0 48 114
- 5.261795 4 3 ack 40 ------- 1 9.0 0.0 48 114
+ 5.26617 4 3 ack 40 ------- 1 9.0 0.0 49 115
- 5.26617 4 3 ack 40 ------- 1 9.0 0.0 49 115
+ 5.270545 4 3 ack 40 ------- 1 9.0 0.0 50 116
- 5.270545 4 3 ack 40 ------- 1 9.0 0.0 50 116
+ 5.27492 4 3 ack 40 ------- 1 9.0 0.0 51 117
- 5.27492 4 3 ack 40 ------- 1 9.0 0.0 51 117
+ 5.279295 4 3 ack 40 ------- 1 9.0 0.0 52 118
- 5.279295 4 3 ack 40 ------- 1 9.0 0.0 52 118
+ 5.28367 4 3 ack 40 ------- 1 9.0 0.0 53 119
- 5.28367 4 3 ack 40 ------- 1 9.0 0.0 53 119
+ 5.288045 4 3 ack 40 ------- 1 9.0 0.0 54 120
- 5.288045 4 3 ack 40 ------- 1 9.0 0.0 54 120
r 5.463045 4 3 ack 40 ------- 1 9.0 0.0 48 114
r 5.46742 4 3 ack 40 ------- 1 9.0 0.0 49 115
r 5.471795 4 3 ack 40 ------- 1 9.0 0.0 50 116
r 5.47617 4 3 ack 40 ------- 1 9.0 0.0 51 117
r 5.480545 4 3 ack 40 ------- 1 9.0 0.0 52 118
r 5.48492 4 3 ack 40 ------- 1 9.0 0.0 53 119
r 5.489295 4 3 ack 40 ------- 1 9.0 0.0 54 120
+ 5.7503 4 3 ack 40 ------- 1 9.0 0.0 55 129
- 5.7503 4 3 ack 40 ------- 1 9.0 0.0 55 129
+ 5.754675 4 3 ack 40 ------- 1 9.0 0.0 56 130
- 5.754675 4 3 ack 40 ------- 1 9.0 0.0 56 130
+ 5.75905 4 3 ack 40 ------- 1 9.0 0.0 57 131
- 5.75905 4 3 ack 40 ------- 1 9.0 0.0 57 131
+ 5.763425 4 3 ack 40 ------- 1 9.0 0.0 58 132
- 5.763425 4 3 ack 40 ------- 1 9.0 0.0 58 132
+ 5.7678 4 3 ack 40 ------- 1 9.0 0.0 59 133
- 5.7678 4 3 ack 40 ------- 1 9.0 0.0 59 133
+ 5.772175 4 3 ack 40 ------- 1 9.0 0.0 60 134
- 5.772175 4 3 ack 40 ------- 1 9.0 0.0 60 134
+ 5.77655 4 3 ack 40 ------- 1 9.0 0.0 61 135
- 5.77655 4 3 ack 40 ------- 1 9.0 0.0 61 135
+ 5.780925 4 3 ack 40 ------- 1 9.0 0.0 62 136
- 5.780925 4 3 ack 40 ------- 1 9.0 0.0 62 136
r 5.95155 4 3 ack 40 ------- 1 9.0 0.0 55 129
r 5.955925 4 3 ack 40 ------- 1 9.0 0.0 56 130
r 5.9603 4 3 ack 40 ------- 1 9.0 0.0 57 131
r 5.964675 4 3 ack 40 ------- 1 9.0 0.0 58 132
r 5.96905 4 3 ack 40 ------- 1 9.0 0.0 59 133
r 5.973425 4 3 ack 40 ------- 1 9.0 0.0 60 134
r 5.9778 4 3 ack 40 ------- 1 9.0 0.0 61 135
r 5.982175 4 3 ack 40 ------- 1 9.0 0.0 62 136
